<event>
 9    1  0.4458519E-002  0.1249952E+03  0.7818608E-02  0.1235077E+00
         21   -1    0    0  503  502  0.00000000000E+00  0.00000000000E+00  0.17333947515E+03  0.17333947515E+03  0.00000000000E+00 0.  1.
         21   -1    0    0  502  503 -0.00000000000E+00 -0.00000000000E+00 -0.22533533222E+02  0.22533533222E+02  0.00000000000E+00 0.  1.
         25    2    1    2    0    0 -0.35527136788E-14 -0.88817841970E-15  0.15080594193E+03  0.19587300838E+03  0.12499521306E+03 0.  0.
    9000006    2    3    3    0    0 -0.54712314150E+01  0.32881222775E+01  0.49887709704E+02  0.78292017863E+02  0.60000919662E+02 0.  0.
    9000007    2    3    3    0    0  0.54712314150E+01 -0.32881222775E+01  0.10091823223E+03  0.11758099051E+03  0.60000446770E+02 0.  0.
          5    1    4    4  501    0 -0.32312567366E+02  0.48999573494E+01  0.28405943353E+02  0.43555702378E+02  0.47000000000E+01 0.  1.
         -5    1    4    4    0  501  0.26841335951E+02 -0.16118350719E+01  0.21481766351E+02  0.34736315486E+02  0.47000000000E+01 0.  1.
         12    1    5    5    0    0  0.27192123897E+02  0.13029290543E+02  0.34488748709E+02  0.45811000879E+02  0.00000000000E+00 0.  1.
        -12    1    5    5    0    0 -0.21720892482E+02 -0.16317412821E+02  0.66429483518E+02  0.71769989633E+02  0.00000000000E+00 0.  1.
<mgrwt>
<rscale>  0 0.12499521E+03</rscale>
<asrwt>0</asrwt>
<pdfrwt beam="1">  1       21 0.26667611E-01 0.12499521E+03</pdfrwt>
<pdfrwt beam="2">  1       21 0.34666975E-02 0.12499521E+03</pdfrwt>
<totfact> 0.65383528E+06</totfact>
</mgrwt>
</event>
<event>
 9    1  0.4458519E-002  0.1249975E+03  0.7818608E-02  0.1235073E+00
         21   -1    0    0  503  502  0.00000000000E+00  0.00000000000E+00  0.80787815115E+01  0.80787815115E+01  0.00000000000E+00 0.  1.
         21   -1    0    0  502  503 -0.00000000000E+00 -0.00000000000E+00 -0.48350027327E+03  0.48350027327E+03  0.00000000000E+00 0.  1.
         25    2    1    2    0    0  0.00000000000E+00  0.00000000000E+00 -0.47542149176E+03  0.49157905478E+03  0.12499748907E+03 0.  0.
    9000006    2    3    3    0    0 -0.17120827664E+02  0.20203768271E+01 -0.24942623957E+03  0.25712050849E+03  0.60002518617E+02 0.  0.
    9000007    2    3    3    0    0  0.17120827664E+02 -0.20203768271E+01 -0.22599525219E+03  0.23445854629E+03  0.59997927068E+02 0.  0.
          5    1    4    4  501    0 -0.17511511023E+02 -0.12379959324E+02 -0.23555930115E+03  0.23658019944E+03  0.47000000000E+01 0. -1.
         -5    1    4    4    0  501  0.39068335879E+00  0.14400336151E+02 -0.13866938420E+02  0.20540309050E+02  0.47000000000E+01 0. -1.
         12    1    5    5    0    0  0.60314409946E+01  0.27388723400E+02 -0.14271955679E+03  0.14544893379E+03  0.00000000000E+00 0. -1.
        -12    1    5    5    0    0  0.11089386670E+02 -0.29409100227E+02 -0.83275695405E+02  0.89009612504E+02  0.00000000000E+00 0. -1.
<mgrwt>
<rscale>  0 0.12499749E+03</rscale>
<asrwt>0</asrwt>
<pdfrwt beam="1">  1       21 0.12428892E-02 0.12499749E+03</pdfrwt>
<pdfrwt beam="2">  1       21 0.74384670E-01 0.12499749E+03</pdfrwt>
<totfact> 0.42507124E+06</totfact>
</mgrwt>
</event>
<event>
 9    1  0.4458519E-002  0.1250004E+03  0.7818608E-02  0.1235069E+00
         21   -1    0    0  503  502  0.00000000000E+00  0.00000000000E+00  0.86310605370E+01  0.86310605370E+01  0.00000000000E+00 0. -1.
         21   -1    0    0  502  503 -0.00000000000E+00 -0.00000000000E+00 -0.45258322874E+03  0.45258322874E+03  0.00000000000E+00 0. -1.
         25    2    1    2    0    0 -0.17763568394E-14  0.00000000000E+00 -0.44395216820E+03  0.46121428928E+03  0.12500037192E+03 0.  0.
    9000006    2    3    3    0    0  0.79630967750E+01 -0.11578766578E+02 -0.18348143501E+03  0.19355322684E+03  0.59999465684E+02 0.  0.
    9000007    2    3    3    0    0 -0.79630967750E+01  0.11578766578E+02 -0.26047073319E+03  0.26766106244E+03  0.59999689560E+02 0.  0.
          5    1    4    4  501    0 -0.73926280671E+01 -0.33399438907E+02 -0.10226117835E+03  0.10793336865E+03  0.47000000000E+01 0. -1.
         -5    1    4    4    0  501  0.15355724842E+02  0.21820672330E+02 -0.81220256656E+02  0.85619858196E+02  0.47000000000E+01 0. -1.
         12    1    5    5    0    0 -0.18916103227E+02  0.15340452714E+02 -0.39620102772E+02  0.46506999413E+02  0.00000000000E+00 0. -1.
        -12    1    5    5    0    0  0.10953006452E+02 -0.37616861362E+01 -0.22085063042E+03  0.22115406302E+03  0.00000000000E+00 0. -1.
<mgrwt>
<rscale>  0 0.12500037E+03</rscale>
<asrwt>0</asrwt>
<pdfrwt beam="1">  1       21 0.13278550E-02 0.12500037E+03</pdfrwt>
<pdfrwt beam="2">  1       21 0.69628214E-01 0.12500037E+03</pdfrwt>
<totfact> 0.44228327E+06</totfact>
</mgrwt>
</event>
<event>
 9    1  0.4458519E-002  0.1249815E+03  0.7818608E-02  0.1235098E+00
         21   -1    0    0  503  502  0.00000000000E+00  0.00000000000E+00  0.36164435701E+02  0.36164435701E+02  0.00000000000E+00 0.  1.
         21   -1    0    0  502  503 -0.00000000000E+00 -0.00000000000E+00 -0.10798152210E+03  0.10798152210E+03  0.00000000000E+00 0.  1.
         25    2    1    2    0    0  0.88817841970E-15  0.00000000000E+00 -0.71817086398E+02  0.14414595780E+03  0.12498145163E+03 0.  0.
    9000006    2    3    3    0    0 -0.32117735836E+01 -0.17171592822E+02 -0.35949855542E+02  0.72092955710E+02  0.59998525481E+02 0.  0.
    9000007    2    3    3    0    0  0.32117735836E+01  0.17171592822E+02 -0.35867230855E+02  0.72053002091E+02  0.59999981429E+02 0.  0.
          5    1    4    4  501    0 -0.18465900759E+02  0.75992323181E+01  0.54972858335E+01  0.21237890060E+02  0.47000000000E+01 0. -1.
         -5    1    4    4    0  501  0.15254127176E+02 -0.24770825140E+02 -0.41447141376E+02  0.50855065650E+02  0.47000000000E+01 0. -1.
         12    1    5    5    0    0  0.67858725982E+01  0.32030418196E+02  0.35017087806E+00  0.32743218784E+02  0.00000000000E+00 0.  1.
        -12    1    5    5    0    0 -0.35740990146E+01 -0.14858825374E+02 -0.36217401734E+02  0.39309783306E+02  0.00000000000E+00 0.  1.
<mgrwt>
<rscale>  0 0.12498145E+03</rscale>
<asrwt>0</asrwt>
<pdfrwt beam="1">  1       21 0.55637594E-02 0.12498145E+03</pdfrwt>
<pdfrwt beam="2">  1       21 0.16612542E-01 0.12498145E+03</pdfrwt>
<totfact> 0.71536363E+06</totfact>
</mgrwt>
</event>
<event>
 9    1  0.4458519E-002  0.1250009E+03  0.7818608E-02  0.1235068E+00
         21   -1    0    0  503  502  0.00000000000E+00  0.00000000000E+00  0.16326435142E+02  0.16326435142E+02  0.00000000000E+00 0.  1.
         21   -1    0    0  502  503 -0.00000000000E+00 -0.00000000000E+00 -0.23926249149E+03  0.23926249149E+03  0.00000000000E+00 0.  1.
         25    2    1    2    0    0  0.17763568394E-14 -0.88817841970E-15 -0.22293605635E+03  0.25558892663E+03  0.12500085678E+03 0.  0.
    9000006    2    3    3    0    0  0.11439703423E+02  0.75224419624E+01 -0.13374539473E+03  0.14722518891E+03  0.59999764098E+02 0.  0.
    9000007    2    3    3    0    0 -0.11439703423E+02 -0.75224419624E+01 -0.89190661620E+02  0.10836373772E+03  0.60002263164E+02 0.  0.
          5    1    4    4  501    0  0.11306868292E+01  0.65523195182E+01 -0.13547813542E+03  0.13572260873E+03  0.47000000000E+01 0.  1.
         -5    1    4    4    0  501  0.10309016594E+02  0.97012244418E+00  0.17327406860E+01  0.11502580187E+02  0.47000000000E+01 0.  1.
         12    1    5    5    0    0 -0.33559173756E+02 -0.97429455560E+01 -0.72771715196E+02  0.80727106128E+02  0.00000000000E+00 0. -1.
        -12    1    5    5    0    0  0.22119470333E+02  0.22205035936E+01 -0.16418946424E+02  0.27636631591E+02  0.00000000000E+00 0. -1.
<mgrwt>
<rscale>  0 0.12500086E+03</rscale>
<asrwt>0</asrwt>
<pdfrwt beam="1">  1       21 0.25117591E-02 0.12500086E+03</pdfrwt>
<pdfrwt beam="2">  1       21 0.36809617E-01 0.12500086E+03</pdfrwt>
<totfact> 0.59354671E+06</totfact>
</mgrwt>
</event>
<event>
 9    1  0.4458519E-002  0.1250003E+03  0.7818608E-02  0.1235069E+00
         21   -1    0    0  503  502  0.00000000000E+00  0.00000000000E+00  0.76223324314E+02  0.76223324314E+02  0.00000000000E+00 0.  1.
         21   -1    0    0  502  503 -0.00000000000E+00 -0.00000000000E+00 -0.51247678466E+02  0.51247678466E+02  0.00000000000E+00 0.  1.
         25    2    1    2    0    0  0.00000000000E+00  0.17763568394E-14  0.24975645847E+02  0.12747100278E+03  0.12500029466E+03 0.  0.
    9000006    2    3    3    0    0 -0.15110694414E+02 -0.59481908350E+01  0.19136463035E+02  0.65039173186E+02  0.60001464743E+02 0.  0.
    9000007    2    3    3    0    0  0.15110694414E+02  0.59481908350E+01  0.58391828125E+01  0.62431829594E+02  0.59999360252E+02 0.  0.
          5    1    4    4  501    0 -0.18099709757E+02  0.14776751881E+02 -0.12421015448E+02  0.26876076987E+02  0.47000000000E+01 0. -1.
         -5    1    4    4    0  501  0.29890153427E+01 -0.20724942716E+02  0.31557478483E+02  0.38163096199E+02  0.47000000000E+01 0. -1.
         12    1    5    5    0    0  0.99979423750E+01 -0.14393587843E+02  0.27288753595E+02  0.32431624929E+02  0.00000000000E+00 0.  1.
        -12    1    5    5    0    0  0.51127520392E+01  0.20341778678E+02 -0.21449570782E+02  0.30000204665E+02  0.00000000000E+00 0.  1.
<mgrwt>
<rscale>  0 0.12500029E+03</rscale>
<asrwt>0</asrwt>
<pdfrwt beam="1">  1       21 0.11726665E-01 0.12500029E+03</pdfrwt>
<pdfrwt beam="2">  1       21 0.78842583E-02 0.12500029E+03</pdfrwt>
<totfact> 0.73704595E+06</totfact>
</mgrwt>
</event>
<event>
 9    1  0.4458519E-002  0.1249991E+03  0.7818608E-02  0.1235071E+00
         21   -1    0    0  503  502  0.00000000000E+00  0.00000000000E+00  0.99282456294E+02  0.99282456294E+02  0.00000000000E+00 0.  1.
         21   -1    0    0  502  503 -0.00000000000E+00 -0.00000000000E+00 -0.39344262902E+02  0.39344262902E+02  0.00000000000E+00 0.  1.
         25    2    1    2    0    0  0.00000000000E+00  0.17763568394E-14  0.59938193393E+02  0.13862671920E+03  0.12499912099E+03 0.  0.
    9000006    2    3    3    0    0 -0.11226813266E+02  0.12252995581E+02  0.36037239233E+02  0.71937516618E+02  0.60001220393E+02 0.  0.
    9000007    2    3    3    0    0  0.11226813266E+02 -0.12252995581E+02  0.23900954159E+02  0.66689202579E+02  0.60000140783E+02 0.  0.
          5    1    4    4  501    0  0.10328478392E+02  0.24961227828E+02 -0.47663476611E+00  0.27423667539E+02  0.47000000000E+01 0. -1.
         -5    1    4    4    0  501 -0.21555291659E+02 -0.12708232247E+02  0.36513874000E+02  0.44513849079E+02  0.47000000000E+01 0. -1.
         12    1    5    5    0    0  0.24835846894E+02  0.13178743744E+02 -0.16382508562E+01  0.28163494873E+02  0.00000000000E+00 0.  1.
        -12    1    5    5    0    0 -0.13609033627E+02 -0.25431739325E+02  0.25539205016E+02  0.38525707705E+02  0.00000000000E+00 0.  1.
<mgrwt>
<rscale>  0 0.12499912E+03</rscale>
<asrwt>0</asrwt>
<pdfrwt beam="1">  1       21 0.15274224E-01 0.12499912E+03</pdfrwt>
<pdfrwt beam="2">  1       21 0.60529636E-02 0.12499912E+03</pdfrwt>
<totfact> 0.72220715E+06</totfact>
</mgrwt>
</event>
<event>
 9    1  0.4458519E-002  0.1250025E+03  0.7818608E-02  0.1235065E+00
         21   -1    0    0  503  502  0.00000000000E+00  0.00000000000E+00  0.79109324456E+01  0.79109324456E+01  0.00000000000E+00 0.  1.
         21   -1    0    0  502  503 -0.00000000000E+00 -0.00000000000E+00 -0.49379873535E+03  0.49379873535E+03  0.00000000000E+00 0.  1.
         25    2    1    2    0    0 -0.17763568394E-14  0.00000000000E+00 -0.48588780290E+03  0.50170966779E+03  0.12500253497E+03 0.  0.
    9000006    2    3    3    0    0  0.85501869191E+01  0.15267142272E+02 -0.24502936691E+03  0.25287445767E+03  0.59999244682E+02 0.  0.
    9000007    2    3    3    0    0 -0.85501869191E+01 -0.15267142272E+02 -0.24085843599E+03  0.24883521013E+03  0.59999869006E+02 0.  0.
          5    1    4    4  501    0 -0.15476095583E+02  0.22952355212E+02 -0.19110036473E+03  0.19315216681E+03  0.47000000000E+01 0. -1.
         -5    1    4    4    0  501  0.24026282502E+02 -0.76852129398E+01 -0.53929002183E+02  0.59722290858E+02  0.47000000000E+01 0. -1.
         12    1    5    5    0    0  0.15246163423E+02 -0.38152293251E+01 -0.19709856001E+03  0.19772416097E+03  0.00000000000E+00 0.  1.
        -12    1    5    5    0    0 -0.23796350342E+02 -0.11451912947E+02 -0.43759875981E+02  0.51111049153E+02  0.00000000000E+00 0.  1.
<mgrwt>
<rscale>  0 0.12500253E+03</rscale>
<asrwt>0</asrwt>
<pdfrwt beam="1">  1       21 0.12170669E-02 0.12500253E+03</pdfrwt>
<pdfrwt beam="2">  1       21 0.75969011E-01 0.12500253E+03</pdfrwt>
<totfact> 0.41948864E+06</totfact>
</mgrwt>
</event>
<event>
 9    1  0.4458519E-002  0.1249767E+03  0.7818608E-02  0.1235106E+00
         21   -1    0    0  503  502  0.00000000000E+00  0.00000000000E+00  0.88096684454E+02  0.88096684454E+02  0.00000000000E+00 0.  1.
         21   -1    0    0  502  503 -0.00000000000E+00 -0.00000000000E+00 -0.44323992775E+02  0.44323992775E+02  0.00000000000E+00 0.  1.
         25    2    1    2    0    0 -0.88817841970E-15 -0.88817841970E-15  0.43772691679E+02  0.13242067723E+03  0.12497674672E+03 0.  0.
    9000006    2    3    3    0    0  0.24307286349E+01 -0.31635968672E+01  0.39888626444E+02  0.72161793759E+02  0.60002543047E+02 0.  0.
    9000007    2    3    3    0    0 -0.24307286349E+01  0.31635968672E+01  0.38840652349E+01  0.60258883470E+02  0.60001085720E+02 0.  0.
          5    1    4    4  501    0 -0.28041000809E+02  0.31360329357E+01  0.17367249231E+02  0.33464066920E+02  0.47000000000E+01 0. -1.
         -5    1    4    4    0  501  0.30471729444E+02 -0.62996298029E+01  0.22521377212E+02  0.38697726839E+02  0.47000000000E+01 0. -1.
         12    1    5    5    0    0 -0.89042153777E+01  0.30625820191E+02  0.29228812092E+01  0.32027631015E+02  0.00000000000E+00 0. -1.
        -12    1    5    5    0    0  0.64734867428E+01 -0.27462223324E+02  0.96118402575E+00  0.28231252456E+02  0.00000000000E+00 0. -1.
<mgrwt>
<rscale>  0 0.12497675E+03</rscale>
<asrwt>0</asrwt>
<pdfrwt beam="1">  1       21 0.13553336E-01 0.12497675E+03</pdfrwt>
<pdfrwt beam="2">  1       21 0.68190758E-02 0.12497675E+03</pdfrwt>
<totfact> 0.73083200E+06</totfact>
</mgrwt>
</event>
<event>
 9    1  0.4458519E-002  0.1250095E+03  0.7818608E-02  0.1235054E+00
         21   -1    0    0  503  502  0.00000000000E+00  0.00000000000E+00  0.52923783834E+03  0.52923783834E+03  0.00000000000E+00 0.  1.
         21   -1    0    0  502  503 -0.00000000000E+00 -0.00000000000E+00 -0.73820164542E+01  0.73820164542E+01  0.00000000000E+00 0.  1.
         25    2    1    2    0    0 -0.88817841970E-15  0.00000000000E+00  0.52185582189E+03  0.53661985480E+03  0.12500947853E+03 0.  0.
    9000006    2    3    3    0    0  0.78783052175E+01  0.59507128604E+01  0.32299439191E+03  0.32866935944E+03  0.60005766008E+02 0.  0.
    9000007    2    3    3    0    0 -0.78783052175E+01 -0.59507128604E+01  0.19886142998E+03  0.20795049535E+03  0.60000512569E+02 0.  0.
          5    1    4    4  501    0  0.13687825111E+02 -0.14804836703E+02  0.42151902407E+02  0.46961820903E+02  0.47000000000E+01 0. -1.
         -5    1    4    4    0  501 -0.58095198934E+01  0.20755549564E+02  0.28084248950E+03  0.28170753854E+03  0.47000000000E+01 0. -1.
         12    1    5    5    0    0 -0.29952942735E+02  0.96167674374E+01  0.77952550494E+02  0.84061055923E+02  0.00000000000E+00 0.  1.
        -12    1    5    5    0    0  0.22074637518E+02 -0.15567480298E+02  0.12090887948E+03  0.12388943943E+03  0.00000000000E+00 0.  1.
<mgrwt>
<rscale>  0 0.12500948E+03</rscale>
<asrwt>0</asrwt>
<pdfrwt beam="1">  1       21 0.81421176E-01 0.12500948E+03</pdfrwt>
<pdfrwt beam="2">  1       21 0.11356953E-02 0.12500948E+03</pdfrwt>
<totfact> 0.40115821E+06</totfact>
</mgrwt>
</event>
<event>
 9    1  0.4458519E-002  0.1250011E+03  0.7818608E-02  0.1235068E+00
         21   -1    0    0  503  502  0.00000000000E+00  0.00000000000E+00  0.28121503304E+03  0.28121503304E+03  0.00000000000E+00 0. -1.
         21   -1    0    0  502  503 -0.00000000000E+00 -0.00000000000E+00 -0.13890856845E+02  0.13890856845E+02  0.00000000000E+00 0. -1.
         25    2    1    2    0    0  0.00000000000E+00  0.00000000000E+00  0.26732417620E+03  0.29510588989E+03  0.12500108426E+03 0.  0.
    9000006    2    3    3    0    0 -0.77301835578E+00 -0.29308263320E+01  0.92964735256E+02  0.11068694007E+03  0.59999745000E+02 0.  0.
    9000007    2    3    3    0    0  0.77301835578E+00  0.29308263320E+01  0.17435944094E+03  0.18441894982E+03  0.59999559220E+02 0.  0.
          5    1    4    4  501    0  0.28979527644E+02  0.41687615784E+00  0.52195090960E+02  0.59886595567E+02  0.47000000000E+01 0.  1.
         -5    1    4    4    0  501 -0.29752546000E+02 -0.33477024898E+01  0.40769644296E+02  0.50800344501E+02  0.47000000000E+01 0.  1.
         12    1    5    5    0    0  0.17991209178E+02 -0.22363469978E+02  0.99224168752E+02  0.10329203291E+03  0.00000000000E+00 0. -1.
        -12    1    5    5    0    0 -0.17218190822E+02  0.25294296309E+02  0.75135272188E+02  0.81126916912E+02  0.00000000000E+00 0. -1.
<mgrwt>
<rscale>  0 0.12500108E+03</rscale>
<asrwt>0</asrwt>
<pdfrwt beam="1">  1       21 0.43263847E-01 0.12500108E+03</pdfrwt>
<pdfrwt beam="2">  1       21 0.21370551E-02 0.12500108E+03</pdfrwt>
<totfact> 0.55863841E+06</totfact>
</mgrwt>
</event>
<event>
 9    1  0.4458519E-002  0.1250086E+03  0.7818608E-02  0.1235056E+00
         21   -1    0    0  503  502  0.00000000000E+00  0.00000000000E+00  0.63289866925E+03  0.63289866925E+03  0.00000000000E+00 0. -1.
         21   -1    0    0  502  503 -0.00000000000E+00 -0.00000000000E+00 -0.61728446742E+01  0.61728446742E+01  0.00000000000E+00 0. -1.
         25    2    1    2    0    0  0.00000000000E+00 -0.35527136788E-14  0.62672582457E+03  0.63907151392E+03  0.12500856258E+03 0.  0.
    9000006    2    3    3    0    0  0.64623546339E+01 -0.15709735650E+02  0.33521347619E+03  0.34096416925E+03  0.59999435611E+02 0.  0.
    9000007    2    3    3    0    0 -0.64623546339E+01  0.15709735650E+02  0.29151234838E+03  0.29810734467E+03  0.59999848863E+02 0.  0.
          5    1    4    4  501    0  0.96318116326E+01 -0.20894973935E+02  0.33167598831E+03  0.33250627506E+03  0.47000000000E+01 0.  1.
         -5    1    4    4    0  501 -0.31694569988E+01  0.51852382849E+01  0.35374878807E+01  0.84578941968E+01  0.47000000000E+01 0.  1.
         12    1    5    5    0    0  0.86246350561E+01  0.33618729994E+02  0.11726110980E+03  0.12228970197E+03  0.00000000000E+00 0.  1.
        -12    1    5    5    0    0 -0.15086989690E+02 -0.17908994344E+02  0.17425123859E+03  0.17581764270E+03  0.00000000000E+00 0.  1.
<mgrwt>
<rscale>  0 0.12500856E+03</rscale>
<asrwt>0</asrwt>
<pdfrwt beam="1">  1       21 0.97368975E-01 0.12500856E+03</pdfrwt>
<pdfrwt beam="2">  1       21 0.94966891E-03 0.12500856E+03</pdfrwt>
<totfact> 0.35375662E+06</totfact>
</mgrwt>
</event>
<event>
 9    1  0.4458519E-002  0.1249980E+03  0.7818608E-02  0.1235072E+00
         21   -1    0    0  503  502  0.00000000000E+00  0.00000000000E+00  0.28147714851E+02  0.28147714851E+02  0.00000000000E+00 0.  1.
         21   -1    0    0  502  503 -0.00000000000E+00 -0.00000000000E+00 -0.13877244841E+03  0.13877244841E+03  0.00000000000E+00 0.  1.
         25    2    1    2    0    0  0.00000000000E+00  0.00000000000E+00 -0.11062473356E+03  0.16692016326E+03  0.12499803690E+03 0.  0.
    9000006    2    3    3    0    0 -0.10086983687E+02  0.13011880130E+02 -0.63224590468E+02  0.88703818076E+02  0.59999685307E+02 0.  0.
    9000007    2    3    3    0    0  0.10086983687E+02 -0.13011880130E+02 -0.47400143093E+02  0.78216345188E+02  0.59999723539E+02 0.  0.
          5    1    4    4  501    0  0.94639279374E+01 -0.76706860085E+01 -0.57920592504E+02  0.59374155925E+02  0.47000000000E+01 0.  1.
         -5    1    4    4    0  501 -0.19550911625E+02  0.20682566139E+02 -0.53039979636E+01  0.29329662150E+02  0.47000000000E+01 0.  1.
         12    1    5    5    0    0 -0.20117446341E+02 -0.10085810848E+02 -0.69036337231E+00  0.22514702515E+02  0.00000000000E+00 0.  1.
        -12    1    5    5    0    0  0.30204430029E+02 -0.29260692828E+01 -0.46709779721E+02  0.55701642673E+02  0.00000000000E+00 0.  1.
<mgrwt>
<rscale>  0 0.12499804E+03</rscale>
<asrwt>0</asrwt>
<pdfrwt beam="1">  1       21 0.43304177E-02 0.12499804E+03</pdfrwt>
<pdfrwt beam="2">  1       21 0.21349607E-01 0.12499804E+03</pdfrwt>
<totfact> 0.68687083E+06</totfact>
</mgrwt>
</event>
<event>
 9    1  0.4458519E-002  0.1249980E+03  0.7818608E-02  0.1235072E+00
         21   -1    0    0  503  502  0.00000000000E+00  0.00000000000E+00  0.11053597684E+02  0.11053597684E+02  0.00000000000E+00 0.  1.
         21   -1    0    0  502  503 -0.00000000000E+00 -0.00000000000E+00 -0.35338031645E+03  0.35338031645E+03  0.00000000000E+00 0.  1.
         25    2    1    2    0    0  0.00000000000E+00 -0.88817841970E-15 -0.34232671876E+03  0.36443391413E+03  0.12499798154E+03 0.  0.
    9000006    2    3    3    0    0 -0.16284010634E+02  0.58444540401E+01 -0.16354810920E+03  0.17506371228E+03  0.59999939071E+02 0.  0.
    9000007    2    3    3    0    0  0.16284010634E+02 -0.58444540401E+01 -0.17877860956E+03  0.18937020185E+03  0.59999628891E+02 0.  0.
          5    1    4    4  501    0  0.93709159541E+01  0.10203019940E+02 -0.68557770916E+01  0.16155722245E+02  0.47000000000E+01 0. -1.
         -5    1    4    4    0  501 -0.25654926589E+02 -0.43585659003E+01 -0.15669233211E+03  0.15890799003E+03  0.47000000000E+01 0. -1.
         12    1    5    5    0    0  0.28053589406E+01  0.72341609384E+01  0.16783943209E+01  0.79385219509E+01  0.00000000000E+00 0. -1.
        -12    1    5    5    0    0  0.13478651694E+02 -0.13078614978E+02 -0.18045700388E+03  0.18143167990E+03  0.00000000000E+00 0. -1.
<mgrwt>
<rscale>  0 0.12499798E+03</rscale>
<asrwt>0</asrwt>
<pdfrwt beam="1">  1       21 0.17005538E-02 0.12499798E+03</pdfrwt>
<pdfrwt beam="2">  1       21 0.54366192E-01 0.12499798E+03</pdfrwt>
<totfact> 0.50492351E+06</totfact>
</mgrwt>
</event>
<event>
 9    1  0.4458519E-002  0.1249899E+03  0.7818608E-02  0.1235085E+00
         21   -1    0    0  503  502  0.00000000000E+00  0.00000000000E+00  0.12516667502E+02  0.12516667502E+02  0.00000000000E+00 0. -1.
         21   -1    0    0  502  503 -0.00000000000E+00 -0.00000000000E+00 -0.31203348402E+03  0.31203348402E+03  0.00000000000E+00 0. -1.
         25    2    1    2    0    0 -0.35527136788E-14  0.35527136788E-14 -0.29951681652E+03  0.32455015152E+03  0.12498990949E+03 0.  0.
    9000006    2    3    3    0    0  0.14441883481E+02  0.97521344345E+01 -0.15334588440E+03  0.16558603065E+03  0.60000842998E+02 0.  0.
    9000007    2    3    3    0    0 -0.14441883481E+02 -0.97521344345E+01 -0.14617093212E+03  0.15896412087E+03  0.59999818355E+02 0.  0.
          5    1    4    4  501    0  0.29623314800E+02 -0.13440464514E+02 -0.64399733262E+02  0.72302161173E+02  0.47000000000E+01 0. -1.
         -5    1    4    4    0  501 -0.15181431319E+02  0.23192598948E+02 -0.88946151137E+02  0.93283869479E+02  0.47000000000E+01 0. -1.
         12    1    5    5    0    0 -0.34891276171E+02  0.68424251206E+01 -0.73011231275E+02  0.81208742304E+02  0.00000000000E+00 0.  1.
        -12    1    5    5    0    0  0.20449392690E+02 -0.16594559555E+02 -0.73159700842E+02  0.77755378563E+02  0.00000000000E+00 0.  1.
<mgrwt>
<rscale>  0 0.12498991E+03</rscale>
<asrwt>0</asrwt>
<pdfrwt beam="1">  1       21 0.19256414E-02 0.12498991E+03</pdfrwt>
<pdfrwt beam="2">  1       21 0.48005146E-01 0.12498991E+03</pdfrwt>
<totfact> 0.53488264E+06</totfact>
</mgrwt>
</event>
<event>
 9    1  0.4458519E-002  0.1250019E+03  0.7818608E-02  0.1235066E+00
         21   -1    0    0  503  502  0.00000000000E+00  0.00000000000E+00  0.41438330753E+01  0.41438330753E+01  0.00000000000E+00 0.  1.
         21   -1    0    0  502  503 -0.00000000000E+00 -0.00000000000E+00 -0.94269405843E+03  0.94269405843E+03  0.00000000000E+00 0.  1.
         25    2    1    2    0    0 -0.17763568394E-14 -0.17763568394E-14 -0.93855022536E+03  0.94683789151E+03  0.12500186909E+03 0.  0.
    9000006    2    3    3    0    0  0.57348529474E+01 -0.10320746133E+02 -0.56745224665E+03  0.57073758502E+03  0.59999436540E+02 0.  0.
    9000007    2    3    3    0    0 -0.57348529474E+01  0.10320746133E+02 -0.37109797871E+03  0.37610030649E+03  0.59986035058E+02 0.  0.
          5    1    4    4  501    0  0.17424692467E+02  0.87128324538E+01 -0.47796888067E+03  0.47838883165E+03  0.47000000000E+01 0.  1.
         -5    1    4    4    0  501 -0.11689839520E+02 -0.19033578587E+02 -0.89483365978E+02  0.92348753368E+02  0.47000000000E+01 0.  1.
         12    1    5    5    0    0  0.24546159492E+02  0.17339003629E+02 -0.18335599875E+03  0.18580252224E+03  0.00000000000E+00 0. -1.
        -12    1    5    5    0    0 -0.30281012439E+02 -0.70182574960E+01 -0.18774197996E+03  0.19029778425E+03  0.00000000000E+00 0. -1.
<mgrwt>
<rscale>  0 0.12500187E+03</rscale>
<asrwt>0</asrwt>
<pdfrwt beam="1">  1       21 0.63751237E-03 0.12500187E+03</pdfrwt>
<pdfrwt beam="2">  1       21 0.14502995E+00 0.12500187E+03</pdfrwt>
<totfact> 0.24995085E+06</totfact>
</mgrwt>
</event>
<event>
 9    1  0.4458519E-002  0.1249999E+03  0.7818608E-02  0.1235069E+00
         21   -1    0    0  503  502  0.00000000000E+00  0.00000000000E+00  0.50882200240E+02  0.50882200240E+02  0.00000000000E+00 0. -1.
         21   -1    0    0  502  503 -0.00000000000E+00 -0.00000000000E+00 -0.76770361503E+02  0.76770361503E+02  0.00000000000E+00 0. -1.
         25    2    1    2    0    0  0.17763568394E-14  0.00000000000E+00 -0.25888161263E+02  0.12765256174E+03  0.12499991850E+03 0.  0.
    9000006    2    3    3    0    0  0.75870039309E+01  0.19669482669E+01  0.30429601958E+01  0.60586516144E+02  0.60000290145E+02 0.  0.
    9000007    2    3    3    0    0 -0.75870039309E+01 -0.19669482669E+01 -0.28931121459E+02  0.67066045599E+02  0.59995109545E+02 0.  0.
          5    1    4    4  501    0  0.18234175996E+02 -0.16508787756E+02 -0.17543840399E+02  0.30576160376E+02  0.47000000000E+01 0. -1.
         -5    1    4    4    0  501 -0.10647172065E+02  0.18475736023E+02  0.20586800595E+02  0.30010355767E+02  0.47000000000E+01 0. -1.
         12    1    5    5    0    0  0.30438329600E+01  0.12610004103E+02 -0.42535751589E+02  0.44469846928E+02  0.00000000000E+00 0.  1.
        -12    1    5    5    0    0 -0.10630836891E+02 -0.14576952370E+02  0.13604630130E+02  0.22596198671E+02  0.00000000000E+00 0.  1.
<mgrwt>
<rscale>  0 0.12499992E+03</rscale>
<asrwt>0</asrwt>
<pdfrwt beam="1">  1       21 0.78280308E-02 0.12499992E+03</pdfrwt>
<pdfrwt beam="2">  1       21 0.11810825E-01 0.12499992E+03</pdfrwt>
<totfact> 0.73680702E+06</totfact>
</mgrwt>
</event>
<event>
 9    1  0.4458519E-002  0.1249887E+03  0.7818608E-02  0.1235087E+00
         21   -1    0    0  503  502  0.00000000000E+00  0.00000000000E+00  0.61984953401E+02  0.61984953401E+02  0.00000000000E+00 0. -1.
         21   -1    0    0  502  503 -0.00000000000E+00 -0.00000000000E+00 -0.63007883814E+02  0.63007883814E+02  0.00000000000E+00 0. -1.
         25    2    1    2    0    0  0.17763568394E-14  0.17763568394E-14 -0.10229304126E+01  0.12499283722E+03  0.12498865136E+03 0.  0.
    9000006    2    3    3    0    0  0.12873326287E+02  0.95301371068E+01 -0.75088801344E+01  0.62553682778E+02  0.60000282543E+02 0.  0.
    9000007    2    3    3    0    0 -0.12873326287E+02 -0.95301371068E+01  0.64859497218E+01  0.62439154437E+02  0.60000286834E+02 0.  0.
          5    1    4    4  501    0  0.28280744524E+02  0.25083147256E+02  0.21820135929E+01  0.38155156538E+02  0.47000000000E+01 0. -1.
         -5    1    4    4    0  501 -0.15407418238E+02 -0.15553010149E+02 -0.96908937273E+01  0.24398526240E+02  0.47000000000E+01 0. -1.
         12    1    5    5    0    0  0.10159452269E+02 -0.29525642409E+02 -0.14694694113E+00  0.31224983963E+02  0.00000000000E+00 0. -1.
        -12    1    5    5    0    0 -0.23032778555E+02  0.19995505302E+02  0.66328966629E+01  0.31214170475E+02  0.00000000000E+00 0. -1.
<mgrwt>
<rscale>  0 0.12498865E+03</rscale>
<asrwt>0</asrwt>
<pdfrwt beam="1">  1       21 0.95361467E-02 0.12498865E+03</pdfrwt>
<pdfrwt beam="2">  1       21 0.96935206E-02 0.12498865E+03</pdfrwt>
<totfact> 0.74066037E+06</totfact>
</mgrwt>
</event>
<event>
 9    1  0.4458519E-002  0.1250020E+03  0.7818608E-02  0.1235066E+00
         21   -1    0    0  503  502  0.00000000000E+00  0.00000000000E+00  0.19364092126E+03  0.19364092126E+03  0.00000000000E+00 0.  1.
         21   -1    0    0  502  503 -0.00000000000E+00 -0.00000000000E+00 -0.20173285405E+02  0.20173285405E+02  0.00000000000E+00 0.  1.
         25    2    1    2    0    0 -0.35527136788E-14  0.17763568394E-14  0.17346763586E+03  0.21381420667E+03  0.12500197712E+03 0.  0.
    9000006    2    3    3    0    0  0.17420678033E+02  0.31925219330E+00  0.89530125388E+02  0.10917499109E+03  0.59999611519E+02 0.  0.
    9000007    2    3    3    0    0 -0.17420678033E+02 -0.31925219330E+00  0.83937510470E+02  0.10463921558E+03  0.60002315187E+02 0.  0.
          5    1    4    4  501    0  0.26153772996E+02 -0.11568607694E+02  0.14205730678E+02  0.32276079532E+02  0.47000000000E+01 0. -1.
         -5    1    4    4    0  501 -0.87330949625E+01  0.11887859888E+02  0.75324394710E+02  0.76898911558E+02  0.47000000000E+01 0. -1.
         12    1    5    5    0    0 -0.17085118002E+02  0.18591293798E+02  0.81574259265E+01  0.26534525810E+02  0.00000000000E+00 0. -1.
        -12    1    5    5    0    0 -0.33556003107E+00 -0.18910545992E+02  0.75780084544E+02  0.78104689768E+02  0.00000000000E+00 0. -1.
<mgrwt>
<rscale>  0 0.12500198E+03</rscale>
<asrwt>0</asrwt>
<pdfrwt beam="1">  1       21 0.29790910E-01 0.12500198E+03</pdfrwt>
<pdfrwt beam="2">  1       21 0.31035825E-02 0.12500198E+03</pdfrwt>
<totfact> 0.63457287E+06</totfact>
</mgrwt>
</event>
<event>
 9    1  0.4458519E-002  0.1250001E+03  0.7818608E-02  0.1235069E+00
         21   -1    0    0  503  502  0.00000000000E+00  0.00000000000E+00  0.94669100016E+01  0.94669100016E+01  0.00000000000E+00 0. -1.
         21   -1    0    0  502  503 -0.00000000000E+00 -0.00000000000E+00 -0.41262240074E+03  0.41262240074E+03  0.00000000000E+00 0. -1.
         25    2    1    2    0    0 -0.17763568394E-14  0.00000000000E+00 -0.40315549074E+03  0.42208931074E+03  0.12500014612E+03 0.  0.
    9000006    2    3    3    0    0 -0.19627293541E+01 -0.11273224285E+02 -0.24631200739E+03  0.25377266118E+03  0.60000172407E+02 0.  0.
    9000007    2    3    3    0    0  0.19627293541E+01  0.11273224285E+02 -0.15684348335E+03  0.16831664956E+03  0.59997319577E+02 0.  0.
          5    1    4    4  501    0 -0.21610928018E+02 -0.23324867199E+02 -0.87287339076E+02  0.93017477942E+02  0.47000000000E+01 0. -1.
         -5    1    4    4    0  501  0.19648198664E+02  0.12051642915E+02 -0.15902466831E+03  0.16075518324E+03  0.47000000000E+01 0. -1.
         12    1    5    5    0    0 -0.85555418724E+01 -0.68100066580E+01 -0.89528188704E+00  0.10971554907E+02  0.00000000000E+00 0.  1.
        -12    1    5    5    0    0  0.10518271226E+02  0.18083230943E+02 -0.15594820147E+03  0.15734509465E+03  0.00000000000E+00 0.  1.
<mgrwt>
<rscale>  0 0.12500015E+03</rscale>
<asrwt>0</asrwt>
<pdfrwt beam="1">  1       21 0.14564475E-02 0.12500015E+03</pdfrwt>
<pdfrwt beam="2">  1       21 0.63480376E-01 0.12500015E+03</pdfrwt>
<totfact> 0.46609719E+06</totfact>
</mgrwt>
</event>
<event>
 9    1  0.4458519E-002  0.1250004E+03  0.7818608E-02  0.1235069E+00
         21   -1    0    0  503  502  0.00000000000E+00  0.00000000000E+00  0.28782355459E+03  0.28782355459E+03  0.00000000000E+00 0. -1.
         21   -1    0    0  502  503 -0.00000000000E+00 -0.00000000000E+00 -0.13571761223E+02  0.13571761223E+02  0.00000000000E+00 0. -1.
         25    2    1    2    0    0 -0.17763568394E-14  0.17763568394E-14  0.27425179337E+03  0.30139531582E+03  0.12500036091E+03 0.  0.
    9000006    2    3    3    0    0 -0.68977468400E+01  0.43155635649E+01  0.17447595928E+03  0.18468361109E+03  0.59999773646E+02 0.  0.
    9000007    2    3    3    0    0  0.68977468400E+01 -0.43155635649E+01  0.99775834092E+02  0.11671170473E+03  0.60001682906E+02 0.  0.
          5    1    4    4  501    0 -0.38374829875E+01  0.30430255676E+02  0.12090348301E+03  0.12482174867E+03  0.47000000000E+01 0.  1.
         -5    1    4    4    0  501 -0.30602638525E+01 -0.26114692111E+02  0.53572476264E+02  0.59861862417E+02  0.47000000000E+01 0.  1.
         12    1    5    5    0    0 -0.10722798252E+02  0.70111716801E+01 -0.18545731238E+01  0.12945052034E+02  0.00000000000E+00 0. -1.
        -12    1    5    5    0    0  0.17620545092E+02 -0.11326735245E+02  0.10163040722E+03  0.10376665269E+03  0.00000000000E+00 0. -1.
<mgrwt>
<rscale>  0 0.12500036E+03</rscale>
<asrwt>0</asrwt>
<pdfrwt beam="1">  1       21 0.44280542E-01 0.12500036E+03</pdfrwt>
<pdfrwt beam="2">  1       21 0.20879635E-02 0.12500036E+03</pdfrwt>
<totfact> 0.55339917E+06</totfact>
</mgrwt>
</event>
<event>
 9    1  0.4458519E-002  0.1250116E+03  0.7818608E-02  0.1235051E+00
         21   -1    0    0  503  502  0.00000000000E+00  0.00000000000E+00  0.10173586042E+02  0.10173586042E+02  0.00000000000E+00 0. -1.
         21   -1    0    0  502  503 -0.00000000000E+00 -0.00000000000E+00 -0.38403126903E+03  0.38403126903E+03  0.00000000000E+00 0. -1.
         25    2    1    2    0    0  0.88817841970E-15  0.35527136788E-14 -0.37385768299E+03  0.39420485508E+03  0.12501160200E+03 0.  0.
    9000006    2    3    3    0    0  0.47442150949E+01  0.10053184020E+02 -0.14422472024E+03  0.15660234728E+03  0.59999592985E+02 0.  0.
    9000007    2    3    3    0    0 -0.47442150949E+01 -0.10053184020E+02 -0.22963296275E+03  0.23760250780E+03  0.60000667036E+02 0.  0.
          5    1    4    4  501    0  0.76791036240E+01  0.18981936242E+02 -0.12473622178E+02  0.24432842368E+02  0.47000000000E+01 0. -1.
         -5    1    4    4    0  501 -0.29348885291E+01 -0.89287522219E+01 -0.13175109807E+03  0.13216950491E+03  0.47000000000E+01 0. -1.
         12    1    5    5    0    0  0.23280222165E+02  0.91427548934E+00 -0.16079107118E+03  0.16247022255E+03  0.00000000000E+00 0. -1.
        -12    1    5    5    0    0 -0.28024437260E+02 -0.10967459510E+02 -0.68841891566E+02  0.75132285246E+02  0.00000000000E+00 0. -1.
<mgrwt>
<rscale>  0 0.12501160E+03</rscale>
<asrwt>0</asrwt>
<pdfrwt beam="1">  1       21 0.15651671E-02 0.12501160E+03</pdfrwt>
<pdfrwt beam="2">  1       21 0.59081732E-01 0.12501160E+03</pdfrwt>
<totfact> 0.48414083E+06</totfact>
</mgrwt>
</event>
<event>
 9    1  0.4458519E-002  0.1250025E+03  0.7818608E-02  0.1235065E+00
         21   -1    0    0  503  502  0.00000000000E+00  0.00000000000E+00  0.17201159871E+03  0.17201159871E+03  0.00000000000E+00 0. -1.
         21   -1    0    0  502  503 -0.00000000000E+00 -0.00000000000E+00 -0.22710119931E+02  0.22710119931E+02  0.00000000000E+00 0. -1.
         25    2    1    2    0    0 -0.17763568394E-14  0.00000000000E+00  0.14930147878E+03  0.19472171864E+03  0.12500246455E+03 0.  0.
    9000006    2    3    3    0    0 -0.15786870412E+01  0.10670911194E+02  0.96124800210E+02  0.11382587751E+03  0.59999938135E+02 0.  0.
    9000007    2    3    3    0    0  0.15786870412E+01 -0.10670911194E+02  0.53176678569E+02  0.80895841134E+02  0.60000144756E+02 0.  0.
          5    1    4    4  501    0  0.10865522864E+02 -0.15495096249E+02  0.82412643114E+01  0.21169932270E+02  0.47000000000E+01 0.  1.
         -5    1    4    4    0  501 -0.12444209905E+02  0.26166007443E+02  0.87883535899E+02  0.92655945237E+02  0.47000000000E+01 0.  1.
         12    1    5    5    0    0 -0.25032286919E+02  0.89766823043E+01  0.15587741399E+02  0.30824890844E+02  0.00000000000E+00 0.  1.
        -12    1    5    5    0    0  0.26610973961E+02 -0.19647593498E+02  0.37588937170E+02  0.50070950290E+02  0.00000000000E+00 0.  1.
<mgrwt>
<rscale>  0 0.12500246E+03</rscale>
<asrwt>0</asrwt>
<pdfrwt beam="1">  1       21 0.26463322E-01 0.12500246E+03</pdfrwt>
<pdfrwt beam="2">  1       21 0.34938647E-02 0.12500246E+03</pdfrwt>
<totfact> 0.65497404E+06</totfact>
</mgrwt>
</event>
<event>
 9    1  0.4458519E-002  0.1249987E+03  0.7818608E-02  0.1235071E+00
         21   -1    0    0  503  502  0.00000000000E+00  0.00000000000E+00  0.23554753518E+03  0.23554753518E+03  0.00000000000E+00 0. -1.
         21   -1    0    0  502  503 -0.00000000000E+00 -0.00000000000E+00 -0.16583364285E+02  0.16583364285E+02  0.00000000000E+00 0. -1.
         25    2    1    2    0    0  0.00000000000E+00  0.00000000000E+00  0.21896417089E+03  0.25213089946E+03  0.12499872931E+03 0.  0.
    9000006    2    3    3    0    0  0.11480085000E+02 -0.32690215135E+01  0.83677158923E+02  0.10365515529E+03  0.60000378660E+02 0.  0.
    9000007    2    3    3    0    0 -0.11480085000E+02  0.32690215135E+01  0.13528701197E+03  0.14847574417E+03  0.59999934559E+02 0.  0.
          5    1    4    4  501    0 -0.18352522260E+01  0.25641353350E+02  0.53508347019E+02  0.59548974408E+02  0.47000000000E+01 0.  1.
         -5    1    4    4    0  501  0.13315337226E+02 -0.28910374864E+02  0.30168811904E+02  0.44106180881E+02  0.47000000000E+01 0.  1.
         12    1    5    5    0    0  0.55769953251E+01 -0.17575323079E+02  0.10998991702E+03  0.11152478067E+03  0.00000000000E+00 0. -1.
        -12    1    5    5    0    0 -0.17057080325E+02  0.20844344593E+02  0.25297094949E+02  0.36950963500E+02  0.00000000000E+00 0. -1.
<mgrwt>
<rscale>  0 0.12499873E+03</rscale>
<asrwt>0</asrwt>
<pdfrwt beam="1">  1       21 0.36238080E-01 0.12499873E+03</pdfrwt>
<pdfrwt beam="2">  1       21 0.25512870E-02 0.12499873E+03</pdfrwt>
<totfact> 0.59680059E+06</totfact>
</mgrwt>
</event>
<event>
 9    1  0.4458519E-002  0.1250061E+03  0.7818608E-02  0.1235060E+00
         21   -1    0    0  503  502  0.00000000000E+00  0.00000000000E+00  0.15105559324E+03  0.15105559324E+03  0.00000000000E+00 0. -1.
         21   -1    0    0  502  503 -0.00000000000E+00 -0.00000000000E+00 -0.25862218531E+02  0.25862218531E+02  0.00000000000E+00 0. -1.
         25    2    1    2    0    0  0.13322676296E-14 -0.35527136788E-14  0.12519337471E+03  0.17691781178E+03  0.12500612406E+03 0.  0.
    9000006    2    3    3    0    0  0.26748750149E+01 -0.17148646208E+02  0.59315916265E+02  0.86137308746E+02  0.60000225105E+02 0.  0.
    9000007    2    3    3    0    0 -0.26748750149E+01  0.17148646208E+02  0.65877458448E+02  0.90780503029E+02  0.60000243128E+02 0.  0.
          5    1    4    4  501    0  0.18168418954E+02  0.11090755545E+02  0.46121077251E+02  0.51013136275E+02  0.47000000000E+01 0. -1.
         -5    1    4    4    0  501 -0.15493543939E+02 -0.28239401753E+02  0.13194839014E+02  0.35124172471E+02  0.47000000000E+01 0. -1.
         12    1    5    5    0    0 -0.44474663809E+01  0.15789847715E+02 -0.70240495200E+01  0.17844789709E+02  0.00000000000E+00 0. -1.
        -12    1    5    5    0    0  0.17725913660E+01  0.13587984926E+01  0.72901507968E+02  0.72935713320E+02  0.00000000000E+00 0. -1.
<mgrwt>
<rscale>  0 0.12500612E+03</rscale>
<asrwt>0</asrwt>
<pdfrwt beam="1">  1       21 0.23239322E-01 0.12500612E+03</pdfrwt>
<pdfrwt beam="2">  1       21 0.39788029E-02 0.12500612E+03</pdfrwt>
<totfact> 0.67496399E+06</totfact>
</mgrwt>
</event>
<event>
 9    1  0.4458519E-002  0.1249960E+03  0.7818608E-02  0.1235075E+00
         21   -1    0    0  503  502  0.00000000000E+00  0.00000000000E+00  0.40649650817E+02  0.40649650817E+02  0.00000000000E+00 0.  1.
         21   -1    0    0  502  503 -0.00000000000E+00 -0.00000000000E+00 -0.96089460018E+02  0.96089460018E+02  0.00000000000E+00 0.  1.
         25    2    1    2    0    0  0.35527136788E-14 -0.17763568394E-14 -0.55439809200E+02  0.13673911083E+03  0.12499604789E+03 0.  0.
    9000006    2    3    3    0    0 -0.61019494688E+01 -0.14837286165E+02 -0.20090991920E+02  0.65276534309E+02  0.59999992725E+02 0.  0.
    9000007    2    3    3    0    0  0.61019494688E+01  0.14837286165E+02 -0.35348817281E+02  0.71462576526E+02  0.59999850937E+02 0.  0.
          5    1    4    4  501    0  0.26496478599E+02 -0.94989592007E+01 -0.11909177487E+02  0.30922679581E+02  0.47000000000E+01 0. -1.
         -5    1    4    4    0  501 -0.32598428068E+02 -0.53383269645E+01 -0.81818144322E+01  0.34353854728E+02  0.47000000000E+01 0. -1.
         12    1    5    5    0    0 -0.13414655910E+02  0.19708374132E+02 -0.43622552482E+02  0.49712172445E+02  0.00000000000E+00 0. -1.
        -12    1    5    5    0    0  0.19516605379E+02 -0.48710879670E+01  0.82737352012E+01  0.21750404081E+02  0.00000000000E+00 0. -1.
<mgrwt>
<rscale>  0 0.12499605E+03</rscale>
<asrwt>0</asrwt>
<pdfrwt beam="1">  1       21 0.62537925E-02 0.12499605E+03</pdfrwt>
<pdfrwt beam="2">  1       21 0.14782994E-01 0.12499605E+03</pdfrwt>
<totfact> 0.72474316E+06</totfact>
</mgrwt>
</event>
<event>
 9    1  0.4458519E-002  0.1250132E+03  0.7818608E-02  0.1235049E+00
         21   -1    0    0  503  502  0.00000000000E+00  0.00000000000E+00  0.35009937549E+02  0.35009937549E+02  0.00000000000E+00 0.  1.
         21   -1    0    0  502  503 -0.00000000000E+00 -0.00000000000E+00 -0.11159908595E+03  0.11159908595E+03  0.00000000000E+00 0.  1.
         25    2    1    2    0    0  0.00000000000E+00  0.00000000000E+00 -0.76589148404E+02  0.14660902350E+03  0.12501323177E+03 0.  0.
    9000006    2    3    3    0    0  0.95474148371E+01 -0.97340339063E+01 -0.51165841463E+02  0.80024229961E+02  0.60000245850E+02 0.  0.
    9000007    2    3    3    0    0 -0.95474148371E+01  0.97340339063E+01 -0.25423306941E+02  0.66584793540E+02  0.60010712784E+02 0.  0.
          5    1    4    4  501    0 -0.18338922290E+02 -0.49370978533E+01  0.19465374971E+01  0.19661383833E+02  0.47000000000E+01 0.  1.
         -5    1    4    4    0  501  0.27886337128E+02 -0.47969360531E+01 -0.53112378960E+02  0.60362846128E+02  0.47000000000E+01 0.  1.
         12    1    5    5    0    0  0.21479954408E+02 -0.20681202008E+01  0.43263183384E+01  0.22008693576E+02  0.00000000000E+00 0.  1.
        -12    1    5    5    0    0 -0.31027369245E+02  0.11802154107E+02 -0.29749625279E+02  0.44576099965E+02  0.00000000000E+00 0.  1.
<mgrwt>
<rscale>  0 0.12501323E+03</rscale>
<asrwt>0</asrwt>
<pdfrwt beam="1">  1       21 0.53861441E-02 0.12501323E+03</pdfrwt>
<pdfrwt beam="2">  1       21 0.17169090E-01 0.12501323E+03</pdfrwt>
<totfact> 0.71163835E+06</totfact>
</mgrwt>
</event>
<event>
 9    1  0.4458519E-002  0.1250137E+03  0.7818608E-02  0.1235048E+00
         21   -1    0    0  503  502  0.00000000000E+00  0.00000000000E+00  0.11986488911E+04  0.11986488911E+04  0.00000000000E+00 0.  1.
         21   -1    0    0  502  503 -0.00000000000E+00 -0.00000000000E+00 -0.32595940196E+01  0.32595940196E+01  0.00000000000E+00 0.  1.
         25    2    1    2    0    0 -0.35527136788E-14 -0.17763568394E-14  0.11953892971E+04  0.12019084851E+04  0.12501373936E+03 0.  0.
    9000006    2    3    3    0    0 -0.13696193934E+02 -0.10933640781E+02  0.59933315755E+03  0.60258381698E+03  0.59999104359E+02 0.  0.
    9000007    2    3    3    0    0  0.13696193934E+02  0.10933640781E+02  0.59605613950E+03  0.59932466811E+03  0.60000051116E+02 0.  0.
          5    1    4    4  501    0 -0.28119609226E+02 -0.25169917142E+02  0.47520723647E+03  0.47672659329E+03  0.47000000000E+01 0. -1.
         -5    1    4    4    0  501  0.14423415292E+02  0.14236276361E+02  0.12412592108E+03  0.12585722370E+03  0.47000000000E+01 0. -1.
         12    1    5    5    0    0  0.31116675938E+02  0.85806799046E+01  0.17825311457E+03  0.18115200369E+03  0.00000000000E+00 0. -1.
        -12    1    5    5    0    0 -0.17420482004E+02  0.23529608766E+01  0.41780302493E+03  0.41817266441E+03  0.00000000000E+00 0. -1.
<mgrwt>
<rscale>  0 0.12501374E+03</rscale>
<asrwt>0</asrwt>
<pdfrwt beam="1">  1       21 0.18440717E+00 0.12501374E+03</pdfrwt>
<pdfrwt beam="2">  1       21 0.50147696E-03 0.12501374E+03</pdfrwt>
<totfact> 0.19098915E+06</totfact>
</mgrwt>
</event>
<event>
 9    1  0.4458519E-002  0.1250007E+03  0.7818608E-02  0.1235068E+00
         21   -1    0    0  503  502  0.00000000000E+00  0.00000000000E+00  0.27657279223E+02  0.27657279223E+02  0.00000000000E+00 0. -1.
         21   -1    0    0  502  503 -0.00000000000E+00 -0.00000000000E+00 -0.14123936307E+03  0.14123936307E+03  0.00000000000E+00 0. -1.
         25    2    1    2    0    0 -0.35527136788E-14  0.00000000000E+00 -0.11358208385E+03  0.16889664230E+03  0.12500074403E+03 0.  0.
    9000006    2    3    3    0    0  0.14960052276E+02  0.88569446702E+01 -0.54060166511E+02  0.82611754794E+02  0.59999598281E+02 0.  0.
    9000007    2    3    3    0    0 -0.14960052276E+02 -0.88569446702E+01 -0.59521917338E+02  0.86284887502E+02  0.59999787789E+02 0.  0.
          5    1    4    4  501    0 -0.21430485975E+02  0.69624422157E+01 -0.33085005661E+02  0.40304452984E+02  0.47000000000E+01 0.  1.
         -5    1    4    4    0  501  0.36390538251E+02  0.18945024545E+01 -0.20975160850E+02  0.42307301810E+02  0.47000000000E+01 0.  1.
         12    1    5    5    0    0 -0.32084067518E+01  0.25468171434E+02 -0.30207145099E+02  0.39640802781E+02  0.00000000000E+00 0.  1.
        -12    1    5    5    0    0 -0.11751645524E+02 -0.34325116104E+02 -0.29314772239E+02  0.46644084722E+02  0.00000000000E+00 0.  1.
<mgrwt>
<rscale>  0 0.12500074E+03</rscale>
<asrwt>0</asrwt>
<pdfrwt beam="1">  1       21 0.42549660E-02 0.12500074E+03</pdfrwt>
<pdfrwt beam="2">  1       21 0.21729133E-01 0.12500074E+03</pdfrwt>
<totfact> 0.68447137E+06</totfact>
</mgrwt>
</event>
<event>
 9    1  0.4458519E-002  0.1249986E+03  0.7818608E-02  0.1235071E+00
         21   -1    0    0  503  502  0.00000000000E+00  0.00000000000E+00  0.46297844485E+03  0.46297844485E+03  0.00000000000E+00 0. -1.
         21   -1    0    0  502  503 -0.00000000000E+00 -0.00000000000E+00 -0.84370331008E+01  0.84370331008E+01  0.00000000000E+00 0. -1.
         25    2    1    2    0    0  0.17763568394E-14  0.17763568394E-14  0.45454141174E+03  0.47141547795E+03  0.12499863142E+03 0.  0.
    9000006    2    3    3    0    0 -0.12173607944E+02  0.19788414603E+01  0.27408667281E+03  0.28084787720E+03  0.59999278072E+02 0.  0.
    9000007    2    3    3    0    0  0.12173607944E+02 -0.19788414603E+01  0.18045473893E+03  0.19056760075E+03  0.59999875900E+02 0.  0.
          5    1    4    4  501    0 -0.17271057345E+02  0.14131947122E+02  0.37795800851E+02  0.44143107200E+02  0.47000000000E+01 0.  1.
         -5    1    4    4    0  501  0.50974494013E+01 -0.12153105661E+02  0.23629087196E+03  0.23670477000E+03  0.47000000000E+01 0.  1.
         12    1    5    5    0    0  0.20570492958E+00  0.27690500547E+02  0.62666830063E+02  0.68512318055E+02  0.00000000000E+00 0.  1.
        -12    1    5    5    0    0  0.11967903014E+02 -0.29669342007E+02  0.11778790887E+03  0.12205528269E+03  0.00000000000E+00 0.  1.
<mgrwt>
<rscale>  0 0.12499863E+03</rscale>
<asrwt>0</asrwt>
<pdfrwt beam="1">  1       21 0.71227433E-01 0.12499863E+03</pdfrwt>
<pdfrwt beam="2">  1       21 0.12980055E-02 0.12499863E+03</pdfrwt>
<totfact> 0.43639435E+06</totfact>
</mgrwt>
</event>
<event>
 9    1  0.4458519E-002  0.1250012E+03  0.7818608E-02  0.1235067E+00
         21   -1    0    0  503  502  0.00000000000E+00  0.00000000000E+00  0.41940668080E+02  0.41940668080E+02  0.00000000000E+00 0.  1.
         21   -1    0    0  502  503 -0.00000000000E+00 -0.00000000000E+00 -0.93139377649E+02  0.93139377649E+02  0.00000000000E+00 0.  1.
         25    2    1    2    0    0  0.00000000000E+00  0.17763568394E-14 -0.51198709569E+02  0.13508004573E+03  0.12500124356E+03 0.  0.
    9000006    2    3    3    0    0  0.10854563847E+02  0.13498089070E+02 -0.22846927079E+02  0.66495450405E+02  0.59997023949E+02 0.  0.
    9000007    2    3    3    0    0 -0.10854563847E+02 -0.13498089070E+02 -0.28351782490E+02  0.68584595323E+02  0.60000026504E+02 0.  0.
          5    1    4    4  501    0  0.29977308108E+02  0.24284879472E+02 -0.20445390921E+02  0.43914671606E+02  0.47000000000E+01 0. -1.
         -5    1    4    4    0  501 -0.19122744261E+02 -0.10786790402E+02 -0.24015361584E+01  0.22580778799E+02  0.47000000000E+01 0. -1.
         12    1    5    5    0    0 -0.20058057509E+02 -0.25228772817E+02  0.44658972313E+01  0.32538606101E+02  0.00000000000E+00 0. -1.
        -12    1    5    5    0    0  0.92034936617E+01  0.11730683747E+02 -0.32817679721E+02  0.36045989223E+02  0.00000000000E+00 0. -1.
<mgrwt>
<rscale>  0 0.12500124E+03</rscale>
<asrwt>0</asrwt>
<pdfrwt beam="1">  1       21 0.64524105E-02 0.12500124E+03</pdfrwt>
<pdfrwt beam="2">  1       21 0.14329135E-01 0.12500124E+03</pdfrwt>
<totfact> 0.72683570E+06</totfact>
</mgrwt>
</event>
<event>
 9    1  0.4458519E-002  0.1250032E+03  0.7818608E-02  0.1235064E+00
         21   -1    0    0  503  502  0.00000000000E+00  0.00000000000E+00  0.64205008492E+01  0.64205008492E+01  0.00000000000E+00 0.  1.
         21   -1    0    0  502  503 -0.00000000000E+00 -0.00000000000E+00 -0.60843417021E+03  0.60843417021E+03  0.00000000000E+00 0.  1.
         25    2    1    2    0    0 -0.17763568394E-14  0.00000000000E+00 -0.60201366937E+03  0.61485467106E+03  0.12500323366E+03 0.  0.
    9000006    2    3    3    0    0 -0.14111877918E+02  0.65329469212E+01 -0.26147407946E+03  0.26872015453E+03  0.60000022714E+02 0.  0.
    9000007    2    3    3    0    0  0.14111877918E+02 -0.65329469212E+01 -0.34053958990E+03  0.34613451653E+03  0.60000556259E+02 0.  0.
          5    1    4    4  501    0 -0.41641191993E+01  0.27551462091E+02 -0.65772576687E+02  0.71585925964E+02  0.47000000000E+01 0. -1.
         -5    1    4    4    0  501 -0.99477587182E+01 -0.21018515170E+02 -0.19570150278E+03  0.19713422857E+03  0.47000000000E+01 0. -1.
         12    1    5    5    0    0  0.29148851891E+02 -0.23658994491E+02 -0.17118253766E+03  0.17525086244E+03  0.00000000000E+00 0.  1.
        -12    1    5    5    0    0 -0.15036973973E+02  0.17126047569E+02 -0.16935705224E+03  0.17088365409E+03  0.00000000000E+00 0.  1.
<mgrwt>
<rscale>  0 0.12500323E+03</rscale>
<asrwt>0</asrwt>
<pdfrwt beam="1">  1       21 0.98776948E-03 0.12500323E+03</pdfrwt>
<pdfrwt beam="2">  1       21 0.93605246E-01 0.12500323E+03</pdfrwt>
<totfact> 0.36426427E+06</totfact>
</mgrwt>
</event>
<event>
 9    1  0.4458519E-002  0.1249997E+03  0.7818608E-02  0.1235070E+00
         21   -1    0    0  503  502  0.00000000000E+00  0.00000000000E+00  0.46467379883E+02  0.46467379883E+02  0.00000000000E+00 0.  1.
         21   -1    0    0  502  503 -0.00000000000E+00 -0.00000000000E+00 -0.84063933222E+02  0.84063933222E+02  0.00000000000E+00 0.  1.
         25    2    1    2    0    0  0.35527136788E-14 -0.35527136788E-14 -0.37596553339E+02  0.13053131311E+03  0.12499969151E+03 0.  0.
    9000006    2    3    3    0    0  0.41069983430E+01 -0.11097777821E+02 -0.32253096401E+02  0.69142103288E+02  0.60002834197E+02 0.  0.
    9000007    2    3    3    0    0 -0.41069983430E+01  0.11097777821E+02 -0.53434569379E+01  0.61389209817E+02  0.60000453681E+02 0.  0.
          5    1    4    4  501    0 -0.22843717694E+02  0.91779626048E+01 -0.22601101275E+02  0.33748632780E+02  0.47000000000E+01 0. -1.
         -5    1    4    4    0  501  0.26950716037E+02 -0.20275740426E+02 -0.96519951259E+01  0.35393470508E+02  0.47000000000E+01 0. -1.
         12    1    5    5    0    0 -0.19044543597E+02 -0.19378702100E+02 -0.35529555661E+01  0.27401682962E+02  0.00000000000E+00 0. -1.
        -12    1    5    5    0    0  0.14937545254E+02  0.30476479921E+02 -0.17905013718E+01  0.33987526855E+02  0.00000000000E+00 0. -1.
<mgrwt>
<rscale>  0 0.12499969E+03</rscale>
<asrwt>0</asrwt>
<pdfrwt beam="1">  1       21 0.71488277E-02 0.12499969E+03</pdfrwt>
<pdfrwt beam="2">  1       21 0.12932913E-01 0.12499969E+03</pdfrwt>
<totfact> 0.73294479E+06</totfact>
</mgrwt>
</event>
<event>
 9    1  0.4458519E-002  0.1249963E+03  0.7818608E-02  0.1235075E+00
         21   -1    0    0  503  502  0.00000000000E+00  0.00000000000E+00  0.72126515140E+02  0.72126515140E+02  0.00000000000E+00 0. -1.
         21   -1    0    0  502  503 -0.00000000000E+00 -0.00000000000E+00 -0.54155142189E+02  0.54155142189E+02  0.00000000000E+00 0. -1.
         25    2    1    2    0    0 -0.17763568394E-14  0.00000000000E+00  0.17971372951E+02  0.12628165733E+03  0.12499634687E+03 0.  0.
    9000006    2    3    3    0    0  0.32316856042E+01  0.10663601283E+02 -0.46380215900E+01  0.61201983490E+02  0.60000127956E+02 0.  0.
    9000007    2    3    3    0    0 -0.32316856042E+01 -0.10663601283E+02  0.22609394541E+02  0.65079673838E+02  0.60000192010E+02 0.  0.
          5    1    4    4  501    0  0.18980838267E+02 -0.38811580907E+01  0.19977783408E+02  0.28222994868E+02  0.47000000000E+01 0.  1.
         -5    1    4    4    0  501 -0.15749152663E+02  0.14544759374E+02 -0.24615804998E+02  0.32978988622E+02  0.47000000000E+01 0.  1.
         12    1    5    5    0    0  0.26269274404E+02  0.46519387871E+01  0.16249213693E+02  0.31237033435E+02  0.00000000000E+00 0.  1.
        -12    1    5    5    0    0 -0.29500960008E+02 -0.15315540070E+02  0.63601808476E+01  0.33842640403E+02  0.00000000000E+00 0.  1.
<mgrwt>
<rscale>  0 0.12499635E+03</rscale>
<asrwt>0</asrwt>
<pdfrwt beam="1">  1       21 0.11096387E-01 0.12499635E+03</pdfrwt>
<pdfrwt beam="2">  1       21 0.83315604E-02 0.12499635E+03</pdfrwt>
<totfact> 0.73874182E+06</totfact>
</mgrwt>
</event>
<event>
 9    1  0.4458519E-002  0.1249871E+03  0.7818608E-02  0.1235089E+00
         21   -1    0    0  503  502  0.00000000000E+00  0.00000000000E+00  0.43005915014E+03  0.43005915014E+03  0.00000000000E+00 0. -1.
         21   -1    0    0  502  503 -0.00000000000E+00 -0.00000000000E+00 -0.90811742514E+01  0.90811742514E+01  0.00000000000E+00 0. -1.
         25    2    1    2    0    0  0.00000000000E+00  0.00000000000E+00  0.42097797589E+03  0.43914032439E+03  0.12498707262E+03 0.  0.
    9000006    2    3    3    0    0  0.94670909230E+01  0.10180368081E+02  0.17328384402E+03  0.18390344774E+03  0.59999348220E+02 0.  0.
    9000007    2    3    3    0    0 -0.94670909230E+01 -0.10180368081E+02  0.24769413186E+03  0.25523687665E+03  0.60001787780E+02 0.  0.
          5    1    4    4  501    0 -0.16382650078E+02 -0.88755224167E+01  0.11987951556E+03  0.12140986110E+03  0.47000000000E+01 0.  1.
         -5    1    4    4    0  501  0.25849741001E+02  0.19055890497E+02  0.53404328461E+02  0.62493586638E+02  0.47000000000E+01 0.  1.
         12    1    5    5    0    0 -0.22638254269E+02  0.16400448833E+02  0.75562619952E+02  0.80567827402E+02  0.00000000000E+00 0. -1.
        -12    1    5    5    0    0  0.13171163346E+02 -0.26580816914E+02  0.17213151191E+03  0.17466904925E+03  0.00000000000E+00 0. -1.
<mgrwt>
<rscale>  0 0.12498707E+03</rscale>
<asrwt>0</asrwt>
<pdfrwt beam="1">  1       21 0.66162930E-01 0.12498707E+03</pdfrwt>
<pdfrwt beam="2">  1       21 0.13971041E-02 0.12498707E+03</pdfrwt>
<totfact> 0.45563833E+06</totfact>
</mgrwt>
</event>
<event>
 9    1  0.4458519E-002  0.1250016E+03  0.7818608E-02  0.1235067E+00
         21   -1    0    0  503  502  0.00000000000E+00  0.00000000000E+00  0.26014191454E+02  0.26014191454E+02  0.00000000000E+00 0. -1.
         21   -1    0    0  502  503 -0.00000000000E+00 -0.00000000000E+00 -0.15016217846E+03  0.15016217846E+03  0.00000000000E+00 0. -1.
         25    2    1    2    0    0 -0.17763568394E-14  0.00000000000E+00 -0.12414798701E+03  0.17617636991E+03  0.12500156254E+03 0.  0.
    9000006    2    3    3    0    0  0.12989934805E+02  0.70823921419E+01 -0.48896247677E+02  0.78802517018E+02  0.60000791385E+02 0.  0.
    9000007    2    3    3    0    0 -0.12989934805E+02 -0.70823921419E+01 -0.75251739329E+02  0.97373852896E+02  0.59999535590E+02 0.  0.
          5    1    4    4  501    0 -0.61286343154E+01 -0.23700418088E+02 -0.23876271865E+02  0.34517188968E+02  0.47000000000E+01 0.  1.
         -5    1    4    4    0  501  0.19118569120E+02  0.30782810230E+02 -0.25019975811E+02  0.44285328049E+02  0.47000000000E+01 0.  1.
         12    1    5    5    0    0  0.27244832709E+01 -0.28608792457E+02 -0.17189400126E+02  0.33486733069E+02  0.00000000000E+00 0.  1.
        -12    1    5    5    0    0 -0.15714418076E+02  0.21526400315E+02 -0.58062339203E+02  0.63887119827E+02  0.00000000000E+00 0.  1.
<mgrwt>
<rscale>  0 0.12500156E+03</rscale>
<asrwt>0</asrwt>
<pdfrwt beam="1">  1       21 0.40021833E-02 0.12500156E+03</pdfrwt>
<pdfrwt beam="2">  1       21 0.23101874E-01 0.12500156E+03</pdfrwt>
<totfact> 0.67590221E+06</totfact>
</mgrwt>
</event>
<event>
 9    1  0.4458519E-002  0.1250031E+03  0.7818608E-02  0.1235064E+00
         21   -1    0    0  503  502  0.00000000000E+00  0.00000000000E+00  0.87465561210E+01  0.87465561210E+01  0.00000000000E+00 0.  1.
         21   -1    0    0  502  503 -0.00000000000E+00 -0.00000000000E+00 -0.44662629052E+03  0.44662629052E+03  0.00000000000E+00 0.  1.
         25    2    1    2    0    0  0.88817841970E-15 -0.35527136788E-14 -0.43787973440E+03  0.45537284664E+03  0.12500307060E+03 0.  0.
    9000006    2    3    3    0    0 -0.10810756583E+01  0.16338943727E+02 -0.19640519975E+03  0.20601755522E+03  0.60000839695E+02 0.  0.
    9000007    2    3    3    0    0  0.10810756583E+01 -0.16338943727E+02 -0.24147453465E+03  0.24935529142E+03  0.59999838899E+02 0.  0.
          5    1    4    4  501    0 -0.73710902336E+01 -0.21678046534E+02 -0.73160937926E+02  0.76804189410E+02  0.47000000000E+01 0.  1.
         -5    1    4    4    0  501  0.62900145753E+01  0.38016990261E+02 -0.12324426182E+03  0.12921336581E+03  0.47000000000E+01 0.  1.
         12    1    5    5    0    0  0.15848157495E+02 -0.33580636713E+02 -0.11459550808E+03  0.12046142009E+03  0.00000000000E+00 0. -1.
        -12    1    5    5    0    0 -0.14767081837E+02  0.17241692986E+02 -0.12687902656E+03  0.12889387132E+03  0.00000000000E+00 0. -1.
<mgrwt>
<rscale>  0 0.12500307E+03</rscale>
<asrwt>0</asrwt>
<pdfrwt beam="1">  1       21 0.13456237E-02 0.12500307E+03</pdfrwt>
<pdfrwt beam="2">  1       21 0.68711754E-01 0.12500307E+03</pdfrwt>
<totfact> 0.44569087E+06</totfact>
</mgrwt>
</event>
<event>
 9    1  0.4458519E-002  0.1249978E+03  0.7818608E-02  0.1235073E+00
         21   -1    0    0  503  502  0.00000000000E+00  0.00000000000E+00  0.71408025203E+02  0.71408025203E+02  0.00000000000E+00 0.  1.
         21   -1    0    0  502  503 -0.00000000000E+00 -0.00000000000E+00 -0.54701272672E+02  0.54701272672E+02  0.00000000000E+00 0.  1.
         25    2    1    2    0    0  0.00000000000E+00  0.00000000000E+00  0.16706752531E+02  0.12610929788E+03  0.12499775770E+03 0.  0.
    9000006    2    3    3    0    0  0.61863328726E+01 -0.11557507208E+02 -0.33426698510E+01  0.61504390045E+02  0.59998082184E+02 0.  0.
    9000007    2    3    3    0    0 -0.61863328726E+01  0.11557507208E+02  0.20049422382E+02  0.64604907830E+02  0.59999734088E+02 0.  0.
          5    1    4    4  501    0  0.28604854941E+02  0.51179581109E+01  0.87339573684E+01  0.30705101087E+02  0.47000000000E+01 0.  1.
         -5    1    4    4    0  501 -0.22418522069E+02 -0.16675465319E+02 -0.12076627219E+02  0.30799288958E+02  0.47000000000E+01 0.  1.
         12    1    5    5    0    0  0.13980806376E+02 -0.30652835867E+01  0.33403368830E+02  0.36340665370E+02  0.00000000000E+00 0. -1.
        -12    1    5    5    0    0 -0.20167139249E+02  0.14622790795E+02 -0.13353946448E+02  0.28264242460E+02  0.00000000000E+00 0. -1.
<mgrwt>
<rscale>  0 0.12499776E+03</rscale>
<asrwt>0</asrwt>
<pdfrwt beam="1">  1       21 0.10985850E-01 0.12499776E+03</pdfrwt>
<pdfrwt beam="2">  1       21 0.84155804E-02 0.12499776E+03</pdfrwt>
<totfact> 0.73895210E+06</totfact>
</mgrwt>
</event>
<event>
 9    1  0.4458519E-002  0.1249892E+03  0.7818608E-02  0.1235086E+00
         21   -1    0    0  503  502  0.00000000000E+00  0.00000000000E+00  0.14747007954E+02  0.14747007954E+02  0.00000000000E+00 0.  1.
         21   -1    0    0  502  503 -0.00000000000E+00 -0.00000000000E+00 -0.26483829855E+03  0.26483829855E+03  0.00000000000E+00 0.  1.
         25    2    1    2    0    0 -0.35527136788E-14  0.17763568394E-14 -0.25009129059E+03  0.27958530650E+03  0.12498915945E+03 0.  0.
    9000006    2    3    3    0    0  0.13805773479E+02 -0.30211837640E+01 -0.14806549227E+03  0.16038432865E+03  0.60000132861E+02 0.  0.
    9000007    2    3    3    0    0 -0.13805773479E+02  0.30211837640E+01 -0.10202579833E+03  0.11920097785E+03  0.59999022192E+02 0.  0.
          5    1    4    4  501    0  0.32867882084E+02  0.12270808696E+02 -0.69877106157E+02  0.78331158446E+02  0.47000000000E+01 0.  1.
         -5    1    4    4    0  501 -0.19062108605E+02 -0.15291992460E+02 -0.78188386109E+02  0.82053170201E+02  0.47000000000E+01 0.  1.
         12    1    5    5    0    0 -0.26895469926E+02  0.23870285656E+02 -0.71070404270E+02  0.79650230401E+02  0.00000000000E+00 0. -1.
        -12    1    5    5    0    0  0.13089696447E+02 -0.20849101892E+02 -0.30955394060E+02  0.39550747454E+02  0.00000000000E+00 0. -1.
<mgrwt>
<rscale>  0 0.12498916E+03</rscale>
<asrwt>0</asrwt>
<pdfrwt beam="1">  1       21 0.22687705E-02 0.12498916E+03</pdfrwt>
<pdfrwt beam="2">  1       21 0.40744353E-01 0.12498916E+03</pdfrwt>
<totfact> 0.57212166E+06</totfact>
</mgrwt>
</event>
<event>
 9    1  0.4458519E-002  0.1249994E+03  0.7818608E-02  0.1235070E+00
         21   -1    0    0  503  502  0.00000000000E+00  0.00000000000E+00  0.10423082594E+02  0.10423082594E+02  0.00000000000E+00 0.  1.
         21   -1    0    0  502  503 -0.00000000000E+00 -0.00000000000E+00 -0.37476547951E+03  0.37476547951E+03  0.00000000000E+00 0.  1.
         25    2    1    2    0    0  0.00000000000E+00  0.00000000000E+00 -0.36434239691E+03  0.38518856210E+03  0.12499938474E+03 0.  0.
    9000006    2    3    3    0    0 -0.34073777154E+01  0.75624908083E+01 -0.22966671702E+03  0.23751897727E+03  0.59997184644E+02 0.  0.
    9000007    2    3    3    0    0  0.34073777154E+01 -0.75624908083E+01 -0.13467567989E+03  0.14766958483E+03  0.59999717002E+02 0.  0.
          5    1    4    4  501    0  0.23361701478E+02 -0.58805593502E+01 -0.15498602369E+03  0.15691751851E+03  0.47000000000E+01 0.  1.
         -5    1    4    4    0  501 -0.26769079194E+02  0.13443050159E+02 -0.74680693326E+02  0.80601458759E+02  0.47000000000E+01 0.  1.
         12    1    5    5    0    0 -0.25927672933E+02  0.81522947146E+01 -0.65036463869E+02  0.70487202848E+02  0.00000000000E+00 0. -1.
        -12    1    5    5    0    0  0.29335050648E+02 -0.15714785523E+02 -0.69639216024E+02  0.77182381986E+02  0.00000000000E+00 0. -1.
<mgrwt>
<rscale>  0 0.12499938E+03</rscale>
<asrwt>0</asrwt>
<pdfrwt beam="1">  1       21 0.16035512E-02 0.12499938E+03</pdfrwt>
<pdfrwt beam="2">  1       21 0.57656225E-01 0.12499938E+03</pdfrwt>
<totfact> 0.49040302E+06</totfact>
</mgrwt>
</event>
<event>
 9    1  0.4458519E-002  0.1249962E+03  0.7818608E-02  0.1235075E+00
         21   -1    0    0  503  502  0.00000000000E+00  0.00000000000E+00  0.11231386072E+03  0.11231386072E+03  0.00000000000E+00 0. -1.
         21   -1    0    0  502  503 -0.00000000000E+00 -0.00000000000E+00 -0.34777670861E+02  0.34777670861E+02  0.00000000000E+00 0. -1.
         25    2    1    2    0    0  0.17763568394E-14  0.35527136788E-14  0.77536189857E+02  0.14709153158E+03  0.12499623164E+03 0.  0.
    9000006    2    3    3    0    0 -0.71747985247E+01 -0.15953236882E+02  0.38482164205E+02  0.73395139833E+02  0.59999884069E+02 0.  0.
    9000007    2    3    3    0    0  0.71747985247E+01  0.15953236882E+02  0.39054025652E+02  0.73696391746E+02  0.59999647798E+02 0.  0.
          5    1    4    4  501    0 -0.19962458160E+02 -0.28411195700E+02  0.53209604774E+01  0.35441478487E+02  0.47000000000E+01 0.  1.
         -5    1    4    4    0  501  0.12787659636E+02  0.12457958819E+02  0.33161203728E+02  0.37953661346E+02  0.47000000000E+01 0.  1.
         12    1    5    5    0    0  0.25455078993E+02  0.18791952893E+02  0.44326421947E+02  0.54460354595E+02  0.00000000000E+00 0. -1.
        -12    1    5    5    0    0 -0.18280280468E+02 -0.28387160113E+01 -0.52723962945E+01  0.19236037151E+02  0.00000000000E+00 0. -1.
<mgrwt>
<rscale>  0 0.12499623E+03</rscale>
<asrwt>0</asrwt>
<pdfrwt beam="1">  1       21 0.17279055E-01 0.12499623E+03</pdfrwt>
<pdfrwt beam="2">  1       21 0.53504109E-02 0.12499623E+03</pdfrwt>
<totfact> 0.71133324E+06</totfact>
</mgrwt>
</event>
<event>
 9    1  0.4458519E-002  0.1249996E+03  0.7818608E-02  0.1235070E+00
         21   -1    0    0  503  502  0.00000000000E+00  0.00000000000E+00  0.98290909218E+02  0.98290909218E+02  0.00000000000E+00 0. -1.
         21   -1    0    0  502  503 -0.00000000000E+00 -0.00000000000E+00 -0.39741464716E+02  0.39741464716E+02  0.00000000000E+00 0. -1.
         25    2    1    2    0    0  0.35527136788E-14  0.00000000000E+00  0.58549444502E+02  0.13803237393E+03  0.12499959521E+03 0.  0.
    9000006    2    3    3    0    0  0.81669216435E+01  0.12620512823E+02  0.19386902767E+02  0.64821959979E+02  0.60000487861E+02 0.  0.
    9000007    2    3    3    0    0 -0.81669216435E+01 -0.12620512823E+02  0.39162541735E+02  0.73210413955E+02  0.60000700690E+02 0.  0.
          5    1    4    4  501    0 -0.24598628334E+02 -0.99271799783E+00  0.13757995550E+02  0.28591090335E+02  0.47000000000E+01 0.  1.
         -5    1    4    4    0  501  0.32765549978E+02  0.13613230821E+02  0.56289072166E+01  0.36230869644E+02  0.47000000000E+01 0.  1.
         12    1    5    5    0    0 -0.19299440067E+02 -0.27612121783E+02  0.42509527135E+02  0.54239815205E+02  0.00000000000E+00 0.  1.
        -12    1    5    5    0    0  0.11132518424E+02  0.14991608960E+02 -0.33469853991E+01  0.18970598750E+02  0.00000000000E+00 0.  1.
<mgrwt>
<rscale>  0 0.12499960E+03</rscale>
<asrwt>0</asrwt>
<pdfrwt beam="1">  1       21 0.15121678E-01 0.12499960E+03</pdfrwt>
<pdfrwt beam="2">  1       21 0.61140715E-02 0.12499960E+03</pdfrwt>
<totfact> 0.72297976E+06</totfact>
</mgrwt>
</event>
<event>
 9    1  0.4458519E-002  0.1249982E+03  0.7818608E-02  0.1235072E+00
         21   -1    0    0  503  502  0.00000000000E+00  0.00000000000E+00  0.83806498694E+02  0.83806498694E+02  0.00000000000E+00 0. -1.
         21   -1    0    0  502  503 -0.00000000000E+00 -0.00000000000E+00 -0.46609000754E+02  0.46609000754E+02  0.00000000000E+00 0. -1.
         25    2    1    2    0    0 -0.35527136788E-14 -0.17763568394E-14  0.37197497940E+02  0.13041549945E+03  0.12499819456E+03 0.  0.
    9000006    2    3    3    0    0  0.13227805737E+02  0.52750961939E+01  0.80018160527E+01  0.62183613650E+02  0.59999760516E+02 0.  0.
    9000007    2    3    3    0    0 -0.13227805737E+02 -0.52750961939E+01  0.29195681887E+02  0.68231885798E+02  0.60003340859E+02 0.  0.
          5    1    4    4  501    0 -0.88162243511E+01  0.24385727471E+02 -0.92935058580E+01  0.27943671327E+02  0.47000000000E+01 0. -1.
         -5    1    4    4    0  501  0.22044030088E+02 -0.19110631277E+02  0.17295321911E+02  0.34239942323E+02  0.47000000000E+01 0. -1.
         12    1    5    5    0    0  0.19758865723E+02 -0.16892639031E+02  0.17574549134E+02  0.31378954816E+02  0.00000000000E+00 0.  1.
        -12    1    5    5    0    0 -0.32986671459E+02  0.11617542837E+02  0.11621132753E+02  0.36852930983E+02  0.00000000000E+00 0.  1.
<mgrwt>
<rscale>  0 0.12499819E+03</rscale>
<asrwt>0</asrwt>
<pdfrwt beam="1">  1       21 0.12893308E-01 0.12499819E+03</pdfrwt>
<pdfrwt beam="2">  1       21 0.71706155E-02 0.12499819E+03</pdfrwt>
<totfact> 0.73312814E+06</totfact>
</mgrwt>
</event>
<event>
 9    1  0.4458519E-002  0.1250000E+03  0.7818608E-02  0.1235069E+00
         21   -1    0    0  503  502  0.00000000000E+00  0.00000000000E+00  0.99821570707E+02  0.99821570707E+02  0.00000000000E+00 0.  1.
         21   -1    0    0  502  503 -0.00000000000E+00 -0.00000000000E+00 -0.39132318762E+02  0.39132318762E+02  0.00000000000E+00 0.  1.
         25    2    1    2    0    0  0.17763568394E-14  0.00000000000E+00  0.60689251945E+02  0.13895388947E+03  0.12499999239E+03 0.  0.
    9000006    2    3    3    0    0 -0.66071468255E+01  0.13507256843E+01  0.48298479541E+02  0.77318881583E+02  0.59999895618E+02 0.  0.
    9000007    2    3    3    0    0  0.66071468255E+01 -0.13507256843E+01  0.12390772404E+02  0.61635007887E+02  0.59998867551E+02 0.  0.
          5    1    4    4  501    0 -0.54332827008E+01 -0.26673341252E+02  0.38195851859E+02  0.47138103417E+02  0.47000000000E+01 0. -1.
         -5    1    4    4    0  501 -0.11738641247E+01  0.28024066936E+02  0.10102627681E+02  0.30180778166E+02  0.47000000000E+01 0. -1.
         12    1    5    5    0    0  0.18286622131E+02  0.63892840407E+01 -0.19077882427E+02  0.27188032246E+02  0.00000000000E+00 0. -1.
        -12    1    5    5    0    0 -0.11679475305E+02 -0.77400097250E+01  0.31468654831E+02  0.34446975641E+02  0.00000000000E+00 0. -1.
<mgrwt>
<rscale>  0 0.12499999E+03</rscale>
<asrwt>0</asrwt>
<pdfrwt beam="1">  1       21 0.15357165E-01 0.12499999E+03</pdfrwt>
<pdfrwt beam="2">  1       21 0.60203568E-02 0.12499999E+03</pdfrwt>
<totfact> 0.72176185E+06</totfact>
</mgrwt>
</event>
<event>
 9    1  0.4458519E-002  0.1250005E+03  0.7818608E-02  0.1235069E+00
         21   -1    0    0  503  502  0.00000000000E+00  0.00000000000E+00  0.10258222273E+02  0.10258222273E+02  0.00000000000E+00 0. -1.
         21   -1    0    0  502  503 -0.00000000000E+00 -0.00000000000E+00 -0.38079502139E+03  0.38079502139E+03  0.00000000000E+00 0. -1.
         25    2    1    2    0    0  0.17763568394E-14  0.00000000000E+00 -0.37053679912E+03  0.39105324367E+03  0.12500047952E+03 0.  0.
    9000006    2    3    3    0    0  0.11074653354E+02  0.11493797203E+02 -0.20773808313E+03  0.21681742971E+03  0.59999427677E+02 0.  0.
    9000007    2    3    3    0    0 -0.11074653354E+02 -0.11493797203E+02 -0.16279871599E+03  0.17423581396E+03  0.59999513467E+02 0.  0.
          5    1    4    4  501    0  0.21018284343E+02 -0.12534655904E+02 -0.40855306646E+02  0.47855323178E+02  0.47000000000E+01 0. -1.
         -5    1    4    4    0  501 -0.99436309890E+01  0.24028453107E+02 -0.16688277649E+03  0.16896210653E+03  0.47000000000E+01 0. -1.
         12    1    5    5    0    0 -0.27467541638E+02 -0.15210901684E+02 -0.42888497773E+02  0.53153180665E+02  0.00000000000E+00 0.  1.
        -12    1    5    5    0    0  0.16392888284E+02  0.37171044810E+01 -0.11991021822E+03  0.12108263329E+03  0.00000000000E+00 0.  1.
<mgrwt>
<rscale>  0 0.12500048E+03</rscale>
<asrwt>0</asrwt>
<pdfrwt beam="1">  1       21 0.15781882E-02 0.12500048E+03</pdfrwt>
<pdfrwt beam="2">  1       21 0.58583843E-01 0.12500048E+03</pdfrwt>
<totfact> 0.48639915E+06</totfact>
</mgrwt>
</event>
<event>
 8    1  0.4458519E-002  0.1250960E+03  0.7818608E-02  0.1234919E+00
         21   -1    0    0  503  502  0.00000000000E+00  0.00000000000E+00  0.21813052187E+03  0.21813052187E+03  0.00000000000E+00 0. -1.
         21   -1    0    0  502  503 -0.00000000000E+00 -0.00000000000E+00 -0.17935363713E+02  0.17935363713E+02  0.00000000000E+00 0. -1.
    9000006    2    1    2    0    0  0.40206265752E+01  0.14558688013E+02  0.82783673692E+02  0.10335034098E+03  0.60000295974E+02 0.  0.
    9000007    2    1    2    0    0 -0.40206265752E+01 -0.14558688013E+02  0.11741148446E+03  0.13271554459E+03  0.59998652143E+02 0.  0.
          5    1    3    3  501    0 -0.22254371728E+02  0.81371335288E+01  0.11091876130E+02  0.26581755382E+02  0.47000000000E+01 0. -1.
         -5    1    3    3    0  501  0.26274998303E+02  0.64215544845E+01  0.71691797562E+02  0.76768585603E+02  0.47000000000E+01 0. -1.
         12    1    4    4    0    0 -0.26911713968E+02 -0.69418276722E+01  0.97656008456E+02  0.10153386286E+03  0.00000000000E+00 0. -1.
        -12    1    4    4    0    0  0.22891087393E+02 -0.76168603411E+01  0.19755476005E+02  0.31181681733E+02  0.00000000000E+00 0. -1.
<mgrwt>
<rscale>  0 0.12509597E+03</rscale>
<asrwt>0</asrwt>
<pdfrwt beam="1">  1       21 0.33558540E-01 0.12509597E+03</pdfrwt>
<pdfrwt beam="2">  1       21 0.27592869E-02 0.12509597E+03</pdfrwt>
<totfact> 0.61067445E+06</totfact>
</mgrwt>
</event>
<event>
 9    1  0.4458519E-002  0.1250031E+03  0.7818608E-02  0.1235064E+00
         21   -1    0    0  503  502  0.00000000000E+00  0.00000000000E+00  0.17360863072E+02  0.17360863072E+02  0.00000000000E+00 0.  1.
         21   -1    0    0  502  503 -0.00000000000E+00 -0.00000000000E+00 -0.22501436303E+03  0.22501436303E+03  0.00000000000E+00 0.  1.
         25    2    1    2    0    0  0.00000000000E+00  0.17763568394E-14 -0.20765349995E+03  0.24237522610E+03  0.12500309669E+03 0.  0.
    9000006    2    3    3    0    0 -0.41720167275E+00 -0.12996956631E+02 -0.12655595488E+03  0.14066112531E+03  0.60000395988E+02 0.  0.
    9000007    2    3    3    0    0  0.41720167275E+00  0.12996956631E+02 -0.81097545071E+02  0.10171410079E+03  0.59998762849E+02 0.  0.
          5    1    4    4  501    0  0.26306647092E+02  0.57583145102E+01 -0.44529399376E+02  0.52250887801E+02  0.47000000000E+01 0.  1.
         -5    1    4    4    0  501 -0.26723848764E+02 -0.18755271141E+02 -0.82026555505E+02  0.88410237509E+02  0.47000000000E+01 0.  1.
         12    1    5    5    0    0 -0.22598029122E+02  0.17369209461E+02 -0.70418733742E+02  0.75968140818E+02  0.00000000000E+00 0.  1.
        -12    1    5    5    0    0  0.23015230794E+02 -0.43722528307E+01 -0.10678811329E+02  0.25745959969E+02  0.00000000000E+00 0.  1.
<mgrwt>
<rscale>  0 0.12500310E+03</rscale>
<asrwt>0</asrwt>
<pdfrwt beam="1">  1       21 0.26709021E-02 0.12500310E+03</pdfrwt>
<pdfrwt beam="2">  1       21 0.34617593E-01 0.12500310E+03</pdfrwt>
<totfact> 0.60598839E+06</totfact>
</mgrwt>
</event>
<event>
 9    1  0.4458519E-002  0.1250458E+03  0.7818608E-02  0.1234998E+00
         21   -1    0    0  503  502  0.00000000000E+00  0.00000000000E+00  0.48668188687E+01  0.48668188687E+01  0.00000000000E+00 0. -1.
         21   -1    0    0  502  503 -0.00000000000E+00 -0.00000000000E+00 -0.80321708684E+03  0.80321708684E+03  0.00000000000E+00 0. -1.
         25    2    1    2    0    0  0.17763568394E-14  0.35527136788E-14 -0.79835026798E+03  0.80808390571E+03  0.12504578480E+03 0.  0.
    9000006    2    3    3    0    0  0.12186242854E+02 -0.11650574193E+02 -0.43140337784E+03  0.43588198301E+03  0.59999902544E+02 0.  0.
    9000007    2    3    3    0    0 -0.12186242854E+02  0.11650574193E+02 -0.36694689014E+03  0.37220192271E+03  0.60000089093E+02 0.  0.
          5    1    4    4  501    0  0.31416433519E+02  0.46494964834E+01 -0.31794643770E+03  0.31956319775E+03  0.47000000000E+01 0.  1.
         -5    1    4    4    0  501 -0.19230190665E+02 -0.16300070677E+02 -0.11345694014E+03  0.11631878526E+03  0.47000000000E+01 0.  1.
         12    1    5    5    0    0  0.24575627066E+00 -0.19867036741E+02 -0.23968835679E+03  0.24051043205E+03  0.00000000000E+00 0. -1.
        -12    1    5    5    0    0 -0.12431999125E+02  0.31517610934E+02 -0.12725853335E+03  0.13169149065E+03  0.00000000000E+00 0. -1.
<mgrwt>
<rscale>  0 0.12504578E+03</rscale>
<asrwt>0</asrwt>
<pdfrwt beam="1">  1       21 0.74874062E-03 0.12504578E+03</pdfrwt>
<pdfrwt beam="2">  1       21 0.12357198E+00 0.12504578E+03</pdfrwt>
<totfact> 0.29063727E+06</totfact>
</mgrwt>
</event>
<event>
 9    1  0.4458519E-002  0.1249973E+03  0.7818608E-02  0.1235073E+00
         21   -1    0    0  503  502  0.00000000000E+00  0.00000000000E+00  0.30751806205E+03  0.30751806205E+03  0.00000000000E+00 0. -1.
         21   -1    0    0  502  503 -0.00000000000E+00 -0.00000000000E+00 -0.12701966129E+02  0.12701966129E+02  0.00000000000E+00 0. -1.
         25    2    1    2    0    0  0.17763568394E-14  0.00000000000E+00  0.29481609592E+03  0.32022002818E+03  0.12499734411E+03 0.  0.
    9000006    2    3    3    0    0 -0.24785554006E+01 -0.11256462297E+02  0.11369067632E+03  0.12906748068E+03  0.59999945886E+02 0.  0.
    9000007    2    3    3    0    0  0.24785554006E+01  0.11256462297E+02  0.18112541961E+03  0.19115254751E+03  0.60000230085E+02 0.  0.
          5    1    4    4  501    0  0.27228066866E+02 -0.32222570030E+01  0.36934055656E+02  0.46238133966E+02  0.47000000000E+01 0.  1.
         -5    1    4    4    0  501 -0.29706622266E+02 -0.80342052935E+01  0.76756620660E+02  0.82829346709E+02  0.47000000000E+01 0.  1.
         12    1    5    5    0    0 -0.13659493528E+01  0.13272039959E+01 -0.46746004954E+01  0.50476903503E+01  0.00000000000E+00 0.  1.
        -12    1    5    5    0    0  0.38445047534E+01  0.99292583006E+01  0.18580002010E+03  0.18610485716E+03  0.00000000000E+00 0.  1.
<mgrwt>
<rscale>  0 0.12499734E+03</rscale>
<asrwt>0</asrwt>
<pdfrwt beam="1">  1       21 0.47310465E-01 0.12499734E+03</pdfrwt>
<pdfrwt beam="2">  1       21 0.19541489E-02 0.12499734E+03</pdfrwt>
<totfact> 0.53819500E+06</totfact>
</mgrwt>
</event>
<event>
 9    1  0.4458519E-002  0.1250007E+03  0.7818608E-02  0.1235068E+00
         21   -1    0    0  503  502  0.00000000000E+00  0.00000000000E+00  0.34971283896E+03  0.34971283896E+03  0.00000000000E+00 0.  1.
         21   -1    0    0  502  503 -0.00000000000E+00 -0.00000000000E+00 -0.11170005578E+02  0.11170005578E+02  0.00000000000E+00 0.  1.
         25    2    1    2    0    0 -0.35527136788E-14  0.17763568394E-14  0.33854283338E+03  0.36088284454E+03  0.12500070979E+03 0.  0.
    9000006    2    3    3    0    0 -0.14628709890E+02  0.94894330849E+01  0.16492914337E+03  0.17636809990E+03  0.60000298639E+02 0.  0.
    9000007    2    3    3    0    0  0.14628709890E+02 -0.94894330849E+01  0.17361369002E+03  0.18451474464E+03  0.59999409460E+02 0.  0.
          5    1    4    4  501    0  0.50044642568E+01 -0.21323350701E+02  0.37114633528E+02  0.43351078066E+02  0.47000000000E+01 0.  1.
         -5    1    4    4    0  501 -0.19633174147E+02  0.30812783786E+02  0.12781450984E+03  0.13301702183E+03  0.47000000000E+01 0.  1.
         12    1    5    5    0    0  0.33770898447E+02 -0.15398305623E+02  0.14438725200E+03  0.14908138696E+03  0.00000000000E+00 0.  1.
        -12    1    5    5    0    0 -0.19142188557E+02  0.59088725379E+01  0.29226438017E+02  0.35433357681E+02  0.00000000000E+00 0.  1.
<mgrwt>
<rscale>  0 0.12500071E+03</rscale>
<asrwt>0</asrwt>
<pdfrwt beam="1">  1       21 0.53801967E-01 0.12500071E+03</pdfrwt>
<pdfrwt beam="2">  1       21 0.17184627E-02 0.12500071E+03</pdfrwt>
<totfact> 0.50743712E+06</totfact>
</mgrwt>
</event>
<event>
 9    1  0.4458519E-002  0.1249802E+03  0.7818608E-02  0.1235100E+00
         21   -1    0    0  503  502  0.00000000000E+00  0.00000000000E+00  0.26919250546E+02  0.26919250546E+02  0.00000000000E+00 0.  1.
         21   -1    0    0  502  503 -0.00000000000E+00 -0.00000000000E+00 -0.14506388537E+03  0.14506388537E+03  0.00000000000E+00 0.  1.
         25    2    1    2    0    0  0.00000000000E+00  0.00000000000E+00 -0.11814463482E+03  0.17198313592E+03  0.12498017564E+03 0.  0.
    9000006    2    3    3    0    0 -0.63641709269E+01  0.16205841561E+02 -0.57288357561E+02  0.84765311343E+02  0.60000584353E+02 0.  0.
    9000007    2    3    3    0    0  0.63641709269E+01 -0.16205841561E+02 -0.60856277263E+02  0.87217824574E+02  0.60002753843E+02 0.  0.
          5    1    4    4  501    0 -0.17669015882E+02  0.14162176402E+02 -0.65779462075E+02  0.69726530055E+02  0.47000000000E+01 0. -1.
         -5    1    4    4    0  501  0.11304844956E+02  0.20436651588E+01  0.84911045137E+01  0.15038781287E+02  0.47000000000E+01 0. -1.
         12    1    5    5    0    0  0.16278745327E+02  0.18857205060E+02 -0.33024256026E+02  0.41366571264E+02  0.00000000000E+00 0.  1.
        -12    1    5    5    0    0 -0.99145744004E+01 -0.35063046621E+02 -0.27832021238E+02  0.45851253310E+02  0.00000000000E+00 0.  1.
<mgrwt>
<rscale>  0 0.12498018E+03</rscale>
<asrwt>0</asrwt>
<pdfrwt beam="1">  1       21 0.41414232E-02 0.12498018E+03</pdfrwt>
<pdfrwt beam="2">  1       21 0.22317521E-01 0.12498018E+03</pdfrwt>
<totfact> 0.68117590E+06</totfact>
</mgrwt>
</event>
<event>
 9    1  0.4458519E-002  0.1249990E+03  0.7818608E-02  0.1235071E+00
         21   -1    0    0  503  502  0.00000000000E+00  0.00000000000E+00  0.42831446046E+02  0.42831446046E+02  0.00000000000E+00 0.  1.
         21   -1    0    0  502  503 -0.00000000000E+00 -0.00000000000E+00 -0.91199122595E+02  0.91199122595E+02  0.00000000000E+00 0.  1.
         25    2    1    2    0    0 -0.35527136788E-14  0.17763568394E-14 -0.48367676549E+02  0.13403056864E+03  0.12499904478E+03 0.  0.
    9000006    2    3    3    0    0 -0.17125029070E+02 -0.16334299589E+01 -0.27613956216E+02  0.68253034579E+02  0.60000095310E+02 0.  0.
    9000007    2    3    3    0    0  0.17125029070E+02  0.16334299589E+01 -0.20753720333E+02  0.65777534062E+02  0.60000269712E+02 0.  0.
          5    1    4    4  501    0 -0.14155939059E+02 -0.29772674179E+02 -0.10813245696E+02  0.35011698343E+02  0.47000000000E+01 0.  1.
         -5    1    4    4    0  501 -0.29690900115E+01  0.28139244220E+02 -0.16800710520E+02  0.33241336236E+02  0.47000000000E+01 0.  1.
         12    1    5    5    0    0 -0.37170846571E+01  0.12072598220E+02 -0.35846957864E+02  0.38007482608E+02  0.00000000000E+00 0. -1.
        -12    1    5    5    0    0  0.20842113727E+02 -0.10439168261E+02  0.15093237530E+02  0.27770051454E+02  0.00000000000E+00 0. -1.
<mgrwt>
<rscale>  0 0.12499904E+03</rscale>
<asrwt>0</asrwt>
<pdfrwt beam="1">  1       21 0.65894533E-02 0.12499904E+03</pdfrwt>
<pdfrwt beam="2">  1       21 0.14030634E-01 0.12499904E+03</pdfrwt>
<totfact> 0.72826864E+06</totfact>
</mgrwt>
</event>
<event>
 9    1  0.4458519E-002  0.1249998E+03  0.7818608E-02  0.1235070E+00
         21   -1    0    0  503  502  0.00000000000E+00  0.00000000000E+00  0.39901100366E+03  0.39901100366E+03  0.00000000000E+00 0.  1.
         21   -1    0    0  502  503 -0.00000000000E+00 -0.00000000000E+00 -0.97897974460E+01  0.97897974460E+01  0.00000000000E+00 0.  1.
         25    2    1    2    0    0 -0.88817841970E-15  0.35527136788E-14  0.38922120621E+03  0.40880080110E+03  0.12499979047E+03 0.  0.
    9000006    2    3    3    0    0 -0.73854435866E+01 -0.14657892751E+02  0.17472621476E+03  0.18546863160E+03  0.59999704906E+02 0.  0.
    9000007    2    3    3    0    0  0.73854435866E+01  0.14657892751E+02  0.21449499145E+03  0.22333216950E+03  0.59997983111E+02 0.  0.
          5    1    4    4  501    0 -0.11921300633E+02 -0.36859787434E+02  0.11277487164E+03  0.11933575747E+03  0.47000000000E+01 0.  1.
         -5    1    4    4    0  501  0.45358570460E+01  0.22201894683E+02  0.61951343119E+02  0.66132874132E+02  0.47000000000E+01 0.  1.
         12    1    5    5    0    0 -0.16998047310E+01 -0.12651005728E+02  0.84987406590E+01  0.15335119004E+02  0.00000000000E+00 0.  1.
        -12    1    5    5    0    0  0.90852483176E+01  0.27308898480E+02  0.20599625079E+03  0.20799705050E+03  0.00000000000E+00 0.  1.
<mgrwt>
<rscale>  0 0.12499979E+03</rscale>
<asrwt>0</asrwt>
<pdfrwt beam="1">  1       21 0.61386296E-01 0.12499979E+03</pdfrwt>
<pdfrwt beam="2">  1       21 0.15061230E-02 0.12499979E+03</pdfrwt>
<totfact> 0.47463283E+06</totfact>
</mgrwt>
</event>
<event>
 9    1  0.4458519E-002  0.1249980E+03  0.7818608E-02  0.1235072E+00
         21   -1    0    0  503  502  0.00000000000E+00  0.00000000000E+00  0.65150949315E+02  0.65150949315E+02  0.00000000000E+00 0.  1.
         21   -1    0    0  502  503 -0.00000000000E+00 -0.00000000000E+00 -0.59955016473E+02  0.59955016473E+02  0.00000000000E+00 0.  1.
         25    2    1    2    0    0  0.00000000000E+00  0.00000000000E+00  0.51959328416E+01  0.12510596579E+03  0.12499801981E+03 0.  0.
    9000006    2    3    3    0    0  0.54012820069E+01 -0.14628279568E+02 -0.53411573846E+01  0.62222243642E+02  0.59999326922E+02 0.  0.
    9000007    2    3    3    0    0 -0.54012820069E+01  0.14628279568E+02  0.10537090226E+02  0.62883722146E+02  0.60001431900E+02 0.  0.
          5    1    4    4  501    0 -0.88374165165E+01 -0.26922616682E+01 -0.29567604105E+02  0.31331795609E+02  0.47000000000E+01 0. -1.
         -5    1    4    4    0  501  0.14238698523E+02 -0.11936017899E+02  0.24226446721E+02  0.30890448032E+02  0.47000000000E+01 0. -1.
         12    1    5    5    0    0 -0.87266950068E+01  0.25508675969E+02 -0.17828265681E+02  0.32321739010E+02  0.00000000000E+00 0.  1.
        -12    1    5    5    0    0  0.33254130000E+01 -0.10880396401E+02  0.28365355908E+02  0.30561983136E+02  0.00000000000E+00 0.  1.
<mgrwt>
<rscale>  0 0.12499802E+03</rscale>
<asrwt>0</asrwt>
<pdfrwt beam="1">  1       21 0.10023223E-01 0.12499802E+03</pdfrwt>
<pdfrwt beam="2">  1       21 0.92238487E-02 0.12499802E+03</pdfrwt>
<totfact> 0.74033018E+06</totfact>
</mgrwt>
</event>
<event>
 8    1  0.4458519E-002  0.1251202E+03  0.7818608E-02  0.1234882E+00
         21   -1    0    0  503  502  0.00000000000E+00  0.00000000000E+00  0.98298006683E+01  0.98298006683E+01  0.00000000000E+00 0.  1.
         21   -1    0    0  502  503 -0.00000000000E+00 -0.00000000000E+00 -0.39815285541E+03  0.39815285541E+03  0.00000000000E+00 0.  1.
    9000006    2    1    2    0    0 -0.68093874612E+01  0.96130522093E+00 -0.14093890282E+03  0.15333339292E+03  0.60000526597E+02 0.  0.
    9000007    2    1    2    0    0  0.68093874612E+01 -0.96130522093E+00 -0.24738415192E+03  0.25464926315E+03  0.60000306148E+02 0.  0.
          5    1    3    3  501    0  0.17729655987E+02 -0.15341638250E+02 -0.29521706202E+02  0.37991152953E+02  0.47000000000E+01 0. -1.
         -5    1    3    3    0  501 -0.24539043448E+02  0.16302943471E+02 -0.11141719662E+03  0.11534223997E+03  0.47000000000E+01 0. -1.
         12    1    4    4    0    0 -0.94739639304E+01 -0.23469976819E+02 -0.58604054339E+02  0.63835969402E+02  0.00000000000E+00 0. -1.
        -12    1    4    4    0    0  0.16283351392E+02  0.22508671598E+02 -0.18878009758E+03  0.19081329375E+03  0.00000000000E+00 0. -1.
<mgrwt>
<rscale>  0 0.12512015E+03</rscale>
<asrwt>0</asrwt>
<pdfrwt beam="1">  1       21 0.15122770E-02 0.12512015E+03</pdfrwt>
<pdfrwt beam="2">  1       21 0.61254287E-01 0.12512015E+03</pdfrwt>
<totfact> 0.47373962E+06</totfact>
</mgrwt>
</event>
<event>
 9    1  0.4458519E-002  0.1249957E+03  0.7818608E-02  0.1235076E+00
         21   -1    0    0  503  502  0.00000000000E+00  0.00000000000E+00  0.39203826805E+02  0.39203826805E+02  0.00000000000E+00 0.  1.
         21   -1    0    0  502  503 -0.00000000000E+00 -0.00000000000E+00 -0.99632580306E+02  0.99632580306E+02  0.00000000000E+00 0.  1.
         25    2    1    2    0    0  0.17763568394E-14  0.88817841970E-15 -0.60428753501E+02  0.13883640711E+03  0.12499565468E+03 0.  0.
    9000006    2    3    3    0    0 -0.13441155512E+02 -0.35152149711E+01 -0.42022857148E+02  0.74557847681E+02  0.59999422749E+02 0.  0.
    9000007    2    3    3    0    0  0.13441155512E+02  0.35152149711E+01 -0.18405896353E+02  0.64278559430E+02  0.59999456531E+02 0.  0.
          5    1    4    4  501    0 -0.55617526208E+01  0.51841989163E+01 -0.55420286024E+02  0.56136504288E+02  0.47000000000E+01 0. -1.
         -5    1    4    4    0  501 -0.78794028914E+01 -0.86994138875E+01  0.13397428877E+02  0.18421343394E+02  0.47000000000E+01 0. -1.
         12    1    5    5    0    0  0.63985901219E+01  0.20989848265E+02 -0.33561814403E+02  0.40098766462E+02  0.00000000000E+00 0. -1.
        -12    1    5    5    0    0  0.70425653903E+01 -0.17474633294E+02  0.15155918049E+02  0.24179792968E+02  0.00000000000E+00 0. -1.
<mgrwt>
<rscale>  0 0.12499565E+03</rscale>
<asrwt>0</asrwt>
<pdfrwt beam="1">  1       21 0.60313581E-02 0.12499565E+03</pdfrwt>
<pdfrwt beam="2">  1       21 0.15328089E-01 0.12499565E+03</pdfrwt>
<totfact> 0.72199572E+06</totfact>
</mgrwt>
</event>
<event>
 9    1  0.4458519E-002  0.1249969E+03  0.7818608E-02  0.1235074E+00
         21   -1    0    0  503  502  0.00000000000E+00  0.00000000000E+00  0.30349959264E+03  0.30349959264E+03  0.00000000000E+00 0.  1.
         21   -1    0    0  502  503 -0.00000000000E+00 -0.00000000000E+00 -0.12870051575E+02  0.12870051575E+02  0.00000000000E+00 0.  1.
         25    2    1    2    0    0 -0.17763568394E-14  0.00000000000E+00  0.29062954107E+03  0.31636964422E+03  0.12499688653E+03 0.  0.
    9000006    2    3    3    0    0  0.12878833751E+02 -0.10207298898E+02  0.13021755453E+03  0.14431725212E+03  0.60006703309E+02 0.  0.
    9000007    2    3    3    0    0 -0.12878833751E+02  0.10207298898E+02  0.16041198654E+03  0.17205239210E+03  0.59999724100E+02 0.  0.
          5    1    4    4  501    0  0.18294352014E+02 -0.32105698211E+02  0.62181716407E+02  0.72485274563E+02  0.47000000000E+01 0. -1.
         -5    1    4    4    0  501 -0.54155182634E+01  0.21898399313E+02  0.68035838121E+02  0.71831977554E+02  0.47000000000E+01 0. -1.
         12    1    5    5    0    0 -0.78312863238E+01  0.87428024868E-01 -0.28984203910E+01  0.83508999460E+01  0.00000000000E+00 0.  1.
        -12    1    5    5    0    0 -0.50475474269E+01  0.10119870873E+02  0.16331040693E+03  0.16370149216E+03  0.00000000000E+00 0.  1.
<mgrwt>
<rscale>  0 0.12499689E+03</rscale>
<asrwt>0</asrwt>
<pdfrwt beam="1">  1       21 0.46692240E-01 0.12499689E+03</pdfrwt>
<pdfrwt beam="2">  1       21 0.19800082E-02 0.12499689E+03</pdfrwt>
<totfact> 0.54126521E+06</totfact>
</mgrwt>
</event>
<event>
 9    1  0.4458519E-002  0.1250000E+03  0.7818608E-02  0.1235069E+00
         21   -1    0    0  503  502  0.00000000000E+00  0.00000000000E+00  0.40814974617E+02  0.40814974617E+02  0.00000000000E+00 0.  1.
         21   -1    0    0  502  503 -0.00000000000E+00 -0.00000000000E+00 -0.95706237769E+02  0.95706237769E+02  0.00000000000E+00 0.  1.
         25    2    1    2    0    0  0.17763568394E-14 -0.35527136788E-14 -0.54891263152E+02  0.13652121239E+03  0.12499996264E+03 0.  0.
    9000006    2    3    3    0    0 -0.80704291587E+00 -0.17478989472E+02 -0.27170053432E+02  0.68149892197E+02  0.60000246764E+02 0.  0.
    9000007    2    3    3    0    0  0.80704291587E+00  0.17478989472E+02 -0.27721209719E+02  0.68371320188E+02  0.60000046373E+02 0.  0.
          5    1    4    4  501    0  0.14870305442E+02  0.14361166679E+02 -0.24279864623E+02  0.32233071812E+02  0.47000000000E+01 0.  1.
         -5    1    4    4    0  501 -0.15677348358E+02 -0.31840156151E+02 -0.28901888097E+01  0.35916820385E+02  0.47000000000E+01 0.  1.
         12    1    5    5    0    0  0.12692657233E+02 -0.18076317945E+02 -0.59165547274E+00  0.22095403917E+02  0.00000000000E+00 0. -1.
        -12    1    5    5    0    0 -0.11885614317E+02  0.35555307416E+02 -0.27129554247E+02  0.46275916271E+02  0.00000000000E+00 0. -1.
<mgrwt>
<rscale>  0 0.12499996E+03</rscale>
<asrwt>0</asrwt>
<pdfrwt beam="1">  1       21 0.62792269E-02 0.12499996E+03</pdfrwt>
<pdfrwt beam="2">  1       21 0.14724037E-01 0.12499996E+03</pdfrwt>
<totfact> 0.72495743E+06</totfact>
</mgrwt>
</event>
<event>
 9    1  0.4458519E-002  0.1250219E+03  0.7818608E-02  0.1235035E+00
         21   -1    0    0  503  502  0.00000000000E+00  0.00000000000E+00  0.25598689285E+03  0.25598689285E+03  0.00000000000E+00 0. -1.
         21   -1    0    0  502  503 -0.00000000000E+00 -0.00000000000E+00 -0.15264909729E+02  0.15264909729E+02  0.00000000000E+00 0. -1.
         25    2    1    2    0    0  0.00000000000E+00 -0.35527136788E-14  0.24072198312E+03  0.27125180257E+03  0.12502186707E+03 0.  0.
    9000006    2    3    3    0    0 -0.11560188059E+02 -0.11701284685E+02  0.10714579999E+03  0.12389798766E+03  0.59999423994E+02 0.  0.
    9000007    2    3    3    0    0  0.11560188059E+02  0.11701284685E+02  0.13357618313E+03  0.14735381492E+03  0.59999933832E+02 0.  0.
          5    1    4    4  501    0  0.13887953483E+02 -0.48325747168E+01  0.22036161703E+01  0.15594067929E+02  0.47000000000E+01 0. -1.
         -5    1    4    4    0  501 -0.25448141542E+02 -0.68687099679E+01  0.10494218382E+03  0.10830391973E+03  0.47000000000E+01 0. -1.
         12    1    5    5    0    0 -0.38346796729E+01 -0.11197952863E+02  0.11120004098E+03  0.11182820767E+03  0.00000000000E+00 0.  1.
        -12    1    5    5    0    0  0.15394867732E+02  0.22899237548E+02  0.22376142146E+02  0.35525607244E+02  0.00000000000E+00 0.  1.
<mgrwt>
<rscale>  0 0.12502187E+03</rscale>
<asrwt>0</asrwt>
<pdfrwt beam="1">  1       21 0.39382596E-01 0.12502187E+03</pdfrwt>
<pdfrwt beam="2">  1       21 0.23484478E-02 0.12502187E+03</pdfrwt>
<totfact> 0.57901202E+06</totfact>
</mgrwt>
</event>
<event>
 9    1  0.4458519E-002  0.1249969E+03  0.7818608E-02  0.1235074E+00
         21   -1    0    0  503  502  0.00000000000E+00  0.00000000000E+00  0.93822484985E+02  0.93822484985E+02  0.00000000000E+00 0.  1.
         21   -1    0    0  502  503 -0.00000000000E+00 -0.00000000000E+00 -0.41632421561E+02  0.41632421561E+02  0.00000000000E+00 0.  1.
         25    2    1    2    0    0  0.00000000000E+00 -0.35527136788E-14  0.52190063424E+02  0.13545490655E+03  0.12499691591E+03 0.  0.
    9000006    2    3    3    0    0 -0.10149822320E+02 -0.13409719420E+02  0.20854670691E+02  0.65706840294E+02  0.59996934120E+02 0.  0.
    9000007    2    3    3    0    0  0.10149822320E+02  0.13409719420E+02  0.31335392733E+02  0.69748066251E+02  0.60000386999E+02 0.  0.
          5    1    4    4  501    0 -0.15296831184E+02 -0.97903673593E+01 -0.18040427744E+02  0.26026743371E+02  0.47000000000E+01 0. -1.
         -5    1    4    4    0  501  0.51470088640E+01 -0.36193520602E+01  0.38895098435E+02  0.39680096923E+02  0.47000000000E+01 0. -1.
         12    1    5    5    0    0 -0.16565080721E+01 -0.23481603084E+02  0.13036436657E+02  0.26908704598E+02  0.00000000000E+00 0. -1.
        -12    1    5    5    0    0  0.11806330392E+02  0.36891322504E+02  0.18298956076E+02  0.42839361653E+02  0.00000000000E+00 0. -1.
<mgrwt>
<rscale>  0 0.12499692E+03</rscale>
<asrwt>0</asrwt>
<pdfrwt beam="1">  1       21 0.14434228E-01 0.12499692E+03</pdfrwt>
<pdfrwt beam="2">  1       21 0.64049879E-02 0.12499692E+03</pdfrwt>
<totfact> 0.72642009E+06</totfact>
</mgrwt>
</event>
<event>
 9    1  0.4458519E-002  0.1250019E+03  0.7818608E-02  0.1235066E+00
         21   -1    0    0  503  502  0.00000000000E+00  0.00000000000E+00  0.95530064996E+03  0.95530064996E+03  0.00000000000E+00 0. -1.
         21   -1    0    0  502  503 -0.00000000000E+00 -0.00000000000E+00 -0.40891505334E+01  0.40891505334E+01  0.00000000000E+00 0. -1.
         25    2    1    2    0    0  0.00000000000E+00  0.00000000000E+00  0.95121149943E+03  0.95938980050E+03  0.12500189058E+03 0.  0.
    9000006    2    3    3    0    0  0.73491199726E+01  0.40479399407E+01  0.59347458104E+03  0.59655918596E+03  0.60003238481E+02 0.  0.
    9000007    2    3    3    0    0 -0.73491199726E+01 -0.40479399407E+01  0.35773691839E+03  0.36283061453E+03  0.59999639042E+02 0.  0.
          5    1    4    4  501    0 -0.87837984023E+01 -0.18269885816E+02  0.44456274591E+03  0.44504951286E+03  0.47000000000E+01 0.  1.
         -5    1    4    4    0  501  0.16132918375E+02  0.22317825757E+02  0.14891183513E+03  0.15150967310E+03  0.47000000000E+01 0.  1.
         12    1    5    5    0    0  0.22142403787E+00 -0.31740855015E+02  0.17581500954E+03  0.17865734938E+03  0.00000000000E+00 0. -1.
        -12    1    5    5    0    0 -0.75705440104E+01  0.27692915074E+02  0.18192190884E+03  0.18417326516E+03  0.00000000000E+00 0. -1.
<mgrwt>
<rscale>  0 0.12500189E+03</rscale>
<asrwt>0</asrwt>
<pdfrwt beam="1">  1       21 0.14696915E+00 0.12500189E+03</pdfrwt>
<pdfrwt beam="2">  1       21 0.62910084E-03 0.12500189E+03</pdfrwt>
<totfact> 0.24660554E+06</totfact>
</mgrwt>
</event>
<event>
 9    1  0.4458519E-002  0.1250129E+03  0.7818608E-02  0.1235049E+00
         21   -1    0    0  503  502  0.00000000000E+00  0.00000000000E+00  0.72861367717E+02  0.72861367717E+02  0.00000000000E+00 0. -1.
         21   -1    0    0  502  503 -0.00000000000E+00 -0.00000000000E+00 -0.53623126885E+02  0.53623126885E+02  0.00000000000E+00 0. -1.
         25    2    1    2    0    0  0.35527136788E-14  0.35527136788E-14  0.19238240832E+02  0.12648449460E+03  0.12501286920E+03 0.  0.
    9000006    2    3    3    0    0  0.51201343023E+01  0.13134586759E+02  0.20148506588E+02  0.64843556067E+02  0.59999927509E+02 0.  0.
    9000007    2    3    3    0    0 -0.51201343023E+01 -0.13134586759E+02 -0.91026575628E+00  0.61640938535E+02  0.60000363125E+02 0.  0.
          5    1    4    4  501    0 -0.20434893534E+02 -0.94540540648E+01 -0.32299808421E+01  0.23226854894E+02  0.47000000000E+01 0. -1.
         -5    1    4    4    0  501  0.25555027837E+02  0.22588640824E+02  0.23378487430E+02  0.41616701173E+02  0.47000000000E+01 0. -1.
         12    1    5    5    0    0  0.23076636562E+02  0.83272907639E+01 -0.73813014009E+01  0.25619495250E+02  0.00000000000E+00 0.  1.
        -12    1    5    5    0    0 -0.28196770865E+02 -0.21461877523E+02  0.64710356446E+01  0.36021443285E+02  0.00000000000E+00 0.  1.
<mgrwt>
<rscale>  0 0.12501287E+03</rscale>
<asrwt>0</asrwt>
<pdfrwt beam="1">  1       21 0.11209441E-01 0.12501287E+03</pdfrwt>
<pdfrwt beam="2">  1       21 0.82497118E-02 0.12501287E+03</pdfrwt>
<totfact> 0.73815249E+06</totfact>
</mgrwt>
</event>
<event>
 9    1  0.4458519E-002  0.1249935E+03  0.7818608E-02  0.1235080E+00
         21   -1    0    0  503  502  0.00000000000E+00  0.00000000000E+00  0.11495956040E+03  0.11495956040E+03  0.00000000000E+00 0. -1.
         21   -1    0    0  502  503 -0.00000000000E+00 -0.00000000000E+00 -0.33975783940E+02  0.33975783940E+02  0.00000000000E+00 0. -1.
         25    2    1    2    0    0  0.35527136788E-14 -0.17763568394E-14  0.80983776464E+02  0.14893534435E+03  0.12499345881E+03 0.  0.
    9000006    2    3    3    0    0 -0.14855635035E+02  0.92105527475E+01  0.41130474588E+02  0.74814754288E+02  0.60000061210E+02 0.  0.
    9000007    2    3    3    0    0  0.14855635035E+02 -0.92105527475E+01  0.39853301877E+02  0.74120590057E+02  0.60000433546E+02 0.  0.
          5    1    4    4  501    0 -0.24400266237E+02  0.16319118901E+01 -0.62433665455E+01  0.25673055032E+02  0.47000000000E+01 0. -1.
         -5    1    4    4    0  501  0.95446312020E+01  0.75786408574E+01  0.47373841133E+02  0.49141699256E+02  0.47000000000E+01 0. -1.
         12    1    5    5    0    0 -0.23043612704E+02 -0.53254836462E+01  0.20928849714E+02  0.31581412458E+02  0.00000000000E+00 0.  1.
        -12    1    5    5    0    0  0.37899247739E+02 -0.38850691013E+01  0.18924452163E+02  0.42539177599E+02  0.00000000000E+00 0.  1.
<mgrwt>
<rscale>  0 0.12499346E+03</rscale>
<asrwt>0</asrwt>
<pdfrwt beam="1">  1       21 0.17686086E-01 0.12499346E+03</pdfrwt>
<pdfrwt beam="2">  1       21 0.52270438E-02 0.12499346E+03</pdfrwt>
<totfact> 0.70905005E+06</totfact>
</mgrwt>
</event>
<event>
 9    1  0.4458519E-002  0.1249935E+03  0.7818608E-02  0.1235079E+00
         21   -1    0    0  503  502  0.00000000000E+00  0.00000000000E+00  0.77385789548E+02  0.77385789548E+02  0.00000000000E+00 0.  1.
         21   -1    0    0  502  503 -0.00000000000E+00 -0.00000000000E+00 -0.50472372597E+02  0.50472372597E+02  0.00000000000E+00 0.  1.
         25    2    1    2    0    0  0.35527136788E-14  0.35527136788E-14  0.26913416952E+02  0.12785816214E+03  0.12499351029E+03 0.  0.
    9000006    2    3    3    0    0  0.87137642896E+01  0.13445467175E+02  0.62914669881E+01  0.62420748405E+02  0.60000474989E+02 0.  0.
    9000007    2    3    3    0    0 -0.87137642896E+01 -0.13445467175E+02  0.20621949964E+02  0.65437413740E+02  0.60000666838E+02 0.  0.
          5    1    4    4  501    0 -0.22494412564E+01 -0.93144619740E+01  0.27247218310E+02  0.29262947450E+02  0.47000000000E+01 0.  1.
         -5    1    4    4    0  501  0.10963205546E+02  0.22759929149E+02 -0.20955751322E+02  0.33157800955E+02  0.47000000000E+01 0.  1.
         12    1    5    5    0    0 -0.32665812459E+02 -0.25410625758E+00  0.19554445957E+02  0.38072250134E+02  0.00000000000E+00 0. -1.
        -12    1    5    5    0    0  0.23952048169E+02 -0.13191360918E+02  0.10675040070E+01  0.27365163606E+02  0.00000000000E+00 0. -1.
<mgrwt>
<rscale>  0 0.12499351E+03</rscale>
<asrwt>0</asrwt>
<pdfrwt beam="1">  1       21 0.11905506E-01 0.12499351E+03</pdfrwt>
<pdfrwt beam="2">  1       21 0.77649804E-02 0.12499351E+03</pdfrwt>
<totfact> 0.73664933E+06</totfact>
</mgrwt>
</event>
<event>
 9    1  0.4458519E-002  0.1249999E+03  0.7818608E-02  0.1235069E+00
         21   -1    0    0  503  502  0.00000000000E+00  0.00000000000E+00  0.20466404695E+03  0.20466404695E+03  0.00000000000E+00 0. -1.
         21   -1    0    0  502  503 -0.00000000000E+00 -0.00000000000E+00 -0.19086125142E+02  0.19086125142E+02  0.00000000000E+00 0. -1.
         25    2    1    2    0    0  0.00000000000E+00 -0.88817841970E-15  0.18557792181E+03  0.22375017209E+03  0.12499989779E+03 0.  0.
    9000006    2    3    3    0    0 -0.16038701756E+02  0.69757830785E+01  0.91744333438E+02  0.11100855239E+03  0.59999787343E+02 0.  0.
    9000007    2    3    3    0    0  0.16038701756E+02 -0.69757830785E+01  0.93833588374E+02  0.11274161971E+03  0.60000241700E+02 0.  0.
          5    1    4    4  501    0 -0.21377654686E+02  0.27609594247E+01  0.34521823722E+01  0.22330127182E+02  0.47000000000E+01 0. -1.
         -5    1    4    4    0  501  0.53389529300E+01  0.42148236538E+01  0.88292151066E+02  0.88678425204E+02  0.47000000000E+01 0. -1.
         12    1    5    5    0    0  0.24123062187E+02 -0.20150510247E+02  0.19882769515E+02  0.37192602975E+02  0.00000000000E+00 0.  1.
        -12    1    5    5    0    0 -0.80843604312E+01  0.13174727168E+02  0.73950818859E+02  0.75549016734E+02  0.00000000000E+00 0.  1.
<mgrwt>
<rscale>  0 0.12499990E+03</rscale>
<asrwt>0</asrwt>
<pdfrwt beam="1">  1       21 0.31486775E-01 0.12499990E+03</pdfrwt>
<pdfrwt beam="2">  1       21 0.29363271E-02 0.12499990E+03</pdfrwt>
<totfact> 0.62441424E+06</totfact>
</mgrwt>
</event>
<event>
 9    1  0.4458519E-002  0.1249993E+03  0.7818608E-02  0.1235070E+00
         21   -1    0    0  503  502  0.00000000000E+00  0.00000000000E+00  0.20853402727E+02  0.20853402727E+02  0.00000000000E+00 0. -1.
         21   -1    0    0  502  503 -0.00000000000E+00 -0.00000000000E+00 -0.18731735918E+03  0.18731735918E+03  0.00000000000E+00 0. -1.
         25    2    1    2    0    0  0.17763568394E-14  0.17763568394E-14 -0.16646395645E+03  0.20817076191E+03  0.12499926926E+03 0.  0.
    9000006    2    3    3    0    0 -0.60312955257E+01 -0.91266631462E+01 -0.10597066844E+03  0.12226859035E+03  0.60001275908E+02 0.  0.
    9000007    2    3    3    0    0  0.60312955257E+01  0.91266631462E+01 -0.60493288013E+02  0.85902171557E+02  0.60000605644E+02 0.  0.
          5    1    4    4  501    0  0.17739755638E+02 -0.15176990298E-02 -0.89988645702E+02  0.91840869376E+02  0.47000000000E+01 0. -1.
         -5    1    4    4    0  501 -0.23771051163E+02 -0.91251454472E+01 -0.15982022735E+02  0.30427720972E+02  0.47000000000E+01 0. -1.
         12    1    5    5    0    0  0.47289517815E+01 -0.24083610511E+02 -0.12551668261E+02  0.27566785383E+02  0.00000000000E+00 0.  1.
        -12    1    5    5    0    0  0.13023437442E+01  0.33210273657E+02 -0.47941619753E+02  0.58335386175E+02  0.00000000000E+00 0.  1.
<mgrwt>
<rscale>  0 0.12499927E+03</rscale>
<asrwt>0</asrwt>
<pdfrwt beam="1">  1       21 0.32082157E-02 0.12499927E+03</pdfrwt>
<pdfrwt beam="2">  1       21 0.28818056E-01 0.12499927E+03</pdfrwt>
<totfact> 0.64053691E+06</totfact>
</mgrwt>
</event>
<event>
 9    1  0.4458519E-002  0.1249992E+03  0.7818608E-02  0.1235070E+00
         21   -1    0    0  503  502  0.00000000000E+00  0.00000000000E+00  0.10583057383E+02  0.10583057383E+02  0.00000000000E+00 0. -1.
         21   -1    0    0  502  503 -0.00000000000E+00 -0.00000000000E+00 -0.36909964810E+03  0.36909964810E+03  0.00000000000E+00 0. -1.
         25    2    1    2    0    0  0.00000000000E+00  0.00000000000E+00 -0.35851659072E+03  0.37968270548E+03  0.12499924409E+03 0.  0.
    9000006    2    3    3    0    0 -0.83308511836E+01 -0.28998689096E+01 -0.13336376086E+03  0.14650531061E+03  0.60000841695E+02 0.  0.
    9000007    2    3    3    0    0  0.83308511836E+01  0.28998689096E+01 -0.22515282986E+03  0.23317739488E+03  0.60000736391E+02 0.  0.
          5    1    4    4  501    0  0.22946134770E+02  0.61523187861E+01 -0.82068269995E+02  0.85566740427E+02  0.47000000000E+01 0.  1.
         -5    1    4    4    0  501 -0.31276985954E+02 -0.90521876957E+01 -0.51295490863E+02  0.60938570178E+02  0.47000000000E+01 0.  1.
         12    1    5    5    0    0  0.23664951100E+02  0.19309831703E+02 -0.69538262272E+02  0.75950440622E+02  0.00000000000E+00 0. -1.
        -12    1    5    5    0    0 -0.15334099916E+02 -0.16409962794E+02 -0.15561456759E+03  0.15722695426E+03  0.00000000000E+00 0. -1.
<mgrwt>
<rscale>  0 0.12499924E+03</rscale>
<asrwt>0</asrwt>
<pdfrwt beam="1">  1       21 0.16281625E-02 0.12499924E+03</pdfrwt>
<pdfrwt beam="2">  1       21 0.56784569E-01 0.12499924E+03</pdfrwt>
<totfact> 0.49419183E+06</totfact>
</mgrwt>
</event>
<event>
 9    1  0.4458519E-002  0.1250061E+03  0.7818608E-02  0.1235060E+00
         21   -1    0    0  503  502  0.00000000000E+00  0.00000000000E+00  0.17310305655E+02  0.17310305655E+02  0.00000000000E+00 0.  1.
         21   -1    0    0  502  503 -0.00000000000E+00 -0.00000000000E+00 -0.22568229933E+03  0.22568229933E+03  0.00000000000E+00 0.  1.
         25    2    1    2    0    0  0.17763568394E-14  0.00000000000E+00 -0.20837199367E+03  0.24299260498E+03  0.12500607317E+03 0.  0.
    9000006    2    3    3    0    0 -0.45989438990E+01  0.16812406834E+01 -0.13686931434E+03  0.14952339651E+03  0.60000500349E+02 0.  0.
    9000007    2    3    3    0    0  0.45989438990E+01 -0.16812406834E+01 -0.71502679333E+02  0.93469208468E+02  0.59999024363E+02 0.  0.
          5    1    4    4  501    0 -0.24878191408E+02  0.37159737946E+01 -0.25208905668E+02  0.35920910260E+02  0.47000000000E+01 0. -1.
         -5    1    4    4    0  501  0.20279247509E+02 -0.20347331111E+01 -0.11166040867E+03  0.11360248625E+03  0.47000000000E+01 0. -1.
         12    1    5    5    0    0  0.12278489629E+02 -0.29093075940E+02 -0.34265547442E+02  0.46597168548E+02  0.00000000000E+00 0.  1.
        -12    1    5    5    0    0 -0.76795457303E+01  0.27411835256E+02 -0.37237131892E+02  0.46872039920E+02  0.00000000000E+00 0.  1.
<mgrwt>
<rscale>  0 0.12500607E+03</rscale>
<asrwt>0</asrwt>
<pdfrwt beam="1">  1       21 0.26631242E-02 0.12500607E+03</pdfrwt>
<pdfrwt beam="2">  1       21 0.34720351E-01 0.12500607E+03</pdfrwt>
<totfact> 0.60535000E+06</totfact>
</mgrwt>
</event>
<event>
 9    1  0.4458519E-002  0.1249994E+03  0.7818608E-02  0.1235070E+00
         21   -1    0    0  503  502  0.00000000000E+00  0.00000000000E+00  0.34194681769E+01  0.34194681769E+01  0.00000000000E+00 0.  1.
         21   -1    0    0  502  503 -0.00000000000E+00 -0.00000000000E+00 -0.11423446579E+04  0.11423446579E+04  0.00000000000E+00 0.  1.
         25    2    1    2    0    0  0.00000000000E+00 -0.53290705182E-14 -0.11389251897E+04  0.11457641260E+04  0.12499937927E+03 0.  0.
    9000006    2    3    3    0    0 -0.23844491777E+01 -0.15263976245E+02 -0.64477591460E+03  0.64774587469E+03  0.60000529665E+02 0.  0.
    9000007    2    3    3    0    0  0.23844491777E+01  0.15263976245E+02 -0.49414927508E+03  0.49801825135E+03  0.59999983678E+02 0.  0.
          5    1    4    4  501    0 -0.26963814686E+02 -0.21062095112E+02 -0.44244287875E+03  0.44378874492E+03  0.47000000000E+01 0. -1.
         -5    1    4    4    0  501  0.24579365508E+02  0.57981188674E+01 -0.20233303584E+03  0.20395712977E+03  0.47000000000E+01 0. -1.
         12    1    5    5    0    0 -0.24320518029E+02 -0.21760216323E+01 -0.11689216672E+03  0.11941524738E+03  0.00000000000E+00 0. -1.
        -12    1    5    5    0    0  0.26704967207E+02  0.17439997877E+02 -0.37725710836E+03  0.37860300396E+03  0.00000000000E+00 0. -1.
<mgrwt>
<rscale>  0 0.12499938E+03</rscale>
<asrwt>0</asrwt>
<pdfrwt beam="1">  1       21 0.52607108E-03 0.12499938E+03</pdfrwt>
<pdfrwt beam="2">  1       21 0.17574565E+00 0.12499938E+03</pdfrwt>
<totfact> 0.20259089E+06</totfact>
</mgrwt>
</event>
<event>
 9    1  0.4458519E-002  0.1249996E+03  0.7818608E-02  0.1235070E+00
         21   -1    0    0  503  502  0.00000000000E+00  0.00000000000E+00  0.10366069681E+03  0.10366069681E+03  0.00000000000E+00 0.  1.
         21   -1    0    0  502  503 -0.00000000000E+00 -0.00000000000E+00 -0.37682804675E+02  0.37682804675E+02  0.00000000000E+00 0.  1.
         25    2    1    2    0    0  0.35527136788E-14  0.00000000000E+00  0.65977892137E+02  0.14134350149E+03  0.12499961265E+03 0.  0.
    9000006    2    3    3    0    0 -0.13385061080E+02  0.90329053413E+01  0.40611236922E+02  0.74229435283E+02  0.59999860492E+02 0.  0.
    9000007    2    3    3    0    0  0.13385061080E+02 -0.90329053413E+01  0.25366655216E+02  0.67114066204E+02  0.60000645385E+02 0.  0.
          5    1    4    4  501    0  0.20591951121E+02  0.22948588472E+01  0.31690047433E+02  0.38152902044E+02  0.47000000000E+01 0. -1.
         -5    1    4    4    0  501 -0.33977012200E+02  0.67380464941E+01  0.89211894885E+01  0.36076533238E+02  0.47000000000E+01 0. -1.
         12    1    5    5    0    0  0.26015412058E+02 -0.15875292806E+02  0.37491689338E+02  0.48316181096E+02  0.00000000000E+00 0. -1.
        -12    1    5    5    0    0 -0.12630350979E+02  0.68423874649E+01 -0.12125034123E+02  0.18797885108E+02  0.00000000000E+00 0. -1.
<mgrwt>
<rscale>  0 0.12499961E+03</rscale>
<asrwt>0</asrwt>
<pdfrwt beam="1">  1       21 0.15947799E-01 0.12499961E+03</pdfrwt>
<pdfrwt beam="2">  1       21 0.57973546E-02 0.12499961E+03</pdfrwt>
<totfact> 0.71865108E+06</totfact>
</mgrwt>
</event>
<event>
 9    1  0.4458519E-002  0.1250010E+03  0.7818608E-02  0.1235068E+00
         21   -1    0    0  503  502  0.00000000000E+00  0.00000000000E+00  0.71293672718E+02  0.71293672718E+02  0.00000000000E+00 0. -1.
         21   -1    0    0  502  503 -0.00000000000E+00 -0.00000000000E+00 -0.54791812648E+02  0.54791812648E+02  0.00000000000E+00 0. -1.
         25    2    1    2    0    0 -0.26645352591E-14  0.00000000000E+00  0.16501860070E+02  0.12608548537E+03  0.12500095293E+03 0.  0.
    9000006    2    3    3    0    0 -0.21431906619E+01  0.85369302224E+01 -0.70066025978E+01  0.61045636956E+02  0.60000040563E+02 0.  0.
    9000007    2    3    3    0    0  0.21431906619E+01 -0.85369302224E+01  0.23508462668E+02  0.65039848410E+02  0.60000513501E+02 0.  0.
          5    1    4    4  501    0 -0.21299001180E+02 -0.16150300942E+02 -0.10820509135E+02  0.29217342276E+02  0.47000000000E+01 0. -1.
         -5    1    4    4    0  501  0.19155810518E+02  0.24687231164E+02  0.38139065373E+01  0.31828294680E+02  0.47000000000E+01 0. -1.
         12    1    5    5    0    0 -0.43829762290E+01 -0.29261803152E+02 -0.41386897411E+01  0.29876284192E+02  0.00000000000E+00 0. -1.
        -12    1    5    5    0    0  0.65261668909E+01  0.20724872929E+02  0.27647152409E+02  0.35163564218E+02  0.00000000000E+00 0. -1.
<mgrwt>
<rscale>  0 0.12500095E+03</rscale>
<asrwt>0</asrwt>
<pdfrwt beam="1">  1       21 0.10968257E-01 0.12500095E+03</pdfrwt>
<pdfrwt beam="2">  1       21 0.84295096E-02 0.12500095E+03</pdfrwt>
<totfact> 0.73892464E+06</totfact>
</mgrwt>
</event>
<event>
 9    1  0.4458519E-002  0.1249842E+03  0.7818608E-02  0.1235094E+00
         21   -1    0    0  503  502  0.00000000000E+00  0.00000000000E+00  0.15821507682E+03  0.15821507682E+03  0.00000000000E+00 0. -1.
         21   -1    0    0  502  503 -0.00000000000E+00 -0.00000000000E+00 -0.24683237216E+02  0.24683237216E+02  0.00000000000E+00 0. -1.
         25    2    1    2    0    0  0.00000000000E+00  0.35527136788E-14  0.13353183960E+03  0.18289831403E+03  0.12498416335E+03 0.  0.
    9000006    2    3    3    0    0  0.16909484693E+02 -0.38981984957E+01  0.63736858403E+02  0.89237688541E+02  0.59998760928E+02 0.  0.
    9000007    2    3    3    0    0 -0.16909484693E+02  0.38981984957E+01  0.69794981199E+02  0.93660625493E+02  0.59998722845E+02 0.  0.
          5    1    4    4  501    0  0.33078523302E+02 -0.20020622716E+02  0.43238116192E+02  0.58194834218E+02  0.47000000000E+01 0. -1.
         -5    1    4    4    0  501 -0.16169038609E+02  0.16122424220E+02  0.20498742212E+02  0.31042854324E+02  0.47000000000E+01 0. -1.
         12    1    5    5    0    0  0.30193459741E-01  0.26252464733E+02  0.10894818398E+02  0.28423403810E+02  0.00000000000E+00 0.  1.
        -12    1    5    5    0    0 -0.16939678153E+02 -0.22354266237E+02  0.58900162801E+02  0.65237221683E+02  0.00000000000E+00 0.  1.
<mgrwt>
<rscale>  0 0.12498416E+03</rscale>
<asrwt>0</asrwt>
<pdfrwt beam="1">  1       21 0.24340780E-01 0.12498416E+03</pdfrwt>
<pdfrwt beam="2">  1       21 0.37974212E-02 0.12498416E+03</pdfrwt>
<totfact> 0.66847437E+06</totfact>
</mgrwt>
</event>
<event>
 9    1  0.4458519E-002  0.1249988E+03  0.7818608E-02  0.1235071E+00
         21   -1    0    0  503  502  0.00000000000E+00  0.00000000000E+00  0.65252768611E+03  0.65252768611E+03  0.00000000000E+00 0. -1.
         21   -1    0    0  502  503 -0.00000000000E+00 -0.00000000000E+00 -0.59862183917E+01  0.59862183917E+01  0.00000000000E+00 0. -1.
         25    2    1    2    0    0 -0.88817841970E-15  0.17763568394E-14  0.64654146772E+03  0.65851390450E+03  0.12499877177E+03 0.  0.
    9000006    2    3    3    0    0 -0.47802785753E+00 -0.14172317303E+02  0.37727757467E+03  0.38228183510E+03  0.59999583440E+02 0.  0.
    9000007    2    3    3    0    0  0.47802785753E+00  0.14172317303E+02  0.26926389305E+03  0.27623206940E+03  0.60000241467E+02 0.  0.
          5    1    4    4  501    0  0.22567878442E+02 -0.22899458908E+02  0.27762382080E+03  0.27951881910E+03  0.47000000000E+01 0.  1.
         -5    1    4    4    0  501 -0.23045906299E+02  0.87271416047E+01  0.99653753872E+02  0.10276301601E+03  0.47000000000E+01 0.  1.
         12    1    5    5    0    0 -0.60907658204E+01  0.20057261579E+02  0.26600531663E+03  0.26682994518E+03  0.00000000000E+00 0. -1.
        -12    1    5    5    0    0  0.65687936779E+01 -0.58849442760E+01  0.32585764191E+01  0.94021242171E+01  0.00000000000E+00 0. -1.
<mgrwt>
<rscale>  0 0.12499877E+03</rscale>
<asrwt>0</asrwt>
<pdfrwt beam="1">  1       21 0.10038882E+00 0.12499877E+03</pdfrwt>
<pdfrwt beam="2">  1       21 0.92095719E-03 0.12499877E+03</pdfrwt>
<totfact> 0.34572628E+06</totfact>
</mgrwt>
</event>
<event>
 9    1  0.4458519E-002  0.1249978E+03  0.7818608E-02  0.1235073E+00
         21   -1    0    0  503  502  0.00000000000E+00  0.00000000000E+00  0.46709609934E+02  0.46709609934E+02  0.00000000000E+00 0. -1.
         21   -1    0    0  502  503 -0.00000000000E+00 -0.00000000000E+00 -0.83625487849E+02  0.83625487849E+02  0.00000000000E+00 0. -1.
         25    2    1    2    0    0  0.17763568394E-14  0.00000000000E+00 -0.36915877915E+02  0.13033509778E+03  0.12499782267E+03 0.  0.
    9000006    2    3    3    0    0  0.52791531639E+01 -0.47443512283E+01 -0.17712095069E+01  0.60437964985E+02  0.59993600506E+02 0.  0.
    9000007    2    3    3    0    0 -0.52791531639E+01  0.47443512283E+01 -0.35144668408E+02  0.69897132798E+02  0.60000692740E+02 0.  0.
          5    1    4    4  501    0 -0.12425393616E+02 -0.25943470724E+02 -0.10675054414E+02  0.31040310347E+02  0.47000000000E+01 0.  1.
         -5    1    4    4    0  501  0.17704546780E+02  0.21199119496E+02  0.89038449070E+01  0.29397654638E+02  0.47000000000E+01 0.  1.
         12    1    5    5    0    0  0.21477373089E+02 -0.93653010157E+01  0.12749535133E+00  0.23430806068E+02  0.00000000000E+00 0. -1.
        -12    1    5    5    0    0 -0.26756526253E+02  0.14109652244E+02 -0.35272163759E+02  0.46466326730E+02  0.00000000000E+00 0. -1.
<mgrwt>
<rscale>  0 0.12499782E+03</rscale>
<asrwt>0</asrwt>
<pdfrwt beam="1">  1       21 0.71860940E-02 0.12499782E+03</pdfrwt>
<pdfrwt beam="2">  1       21 0.12865459E-01 0.12499782E+03</pdfrwt>
<totfact> 0.73324239E+06</totfact>
</mgrwt>
</event>
<event>
 9    1  0.4458519E-002  0.1249961E+03  0.7818608E-02  0.1235075E+00
         21   -1    0    0  503  502  0.00000000000E+00  0.00000000000E+00  0.40908536828E+03  0.40908536828E+03  0.00000000000E+00 0. -1.
         21   -1    0    0  502  503 -0.00000000000E+00 -0.00000000000E+00 -0.95481477027E+01  0.95481477027E+01  0.00000000000E+00 0. -1.
         25    2    1    2    0    0  0.00000000000E+00  0.00000000000E+00  0.39953722058E+03  0.41863351599E+03  0.12499612025E+03 0.  0.
    9000006    2    3    3    0    0  0.10349993988E+02  0.14098928411E+02  0.20093337089E+03  0.21042827563E+03  0.59999479078E+02 0.  0.
    9000007    2    3    3    0    0 -0.10349993988E+02 -0.14098928411E+02  0.19860384969E+03  0.20820524036E+03  0.60000257014E+02 0.  0.
          5    1    4    4  501    0  0.16642426062E+02  0.30824732485E+02  0.72324998352E+02  0.80499253814E+02  0.47000000000E+01 0. -1.
         -5    1    4    4    0  501 -0.62924320737E+01 -0.16725804074E+02  0.12860837254E+03  0.12992902181E+03  0.47000000000E+01 0. -1.
         12    1    5    5    0    0  0.13965191371E+02  0.16001057685E+02  0.10104852018E+03  0.10325630173E+03  0.00000000000E+00 0.  1.
        -12    1    5    5    0    0 -0.24315185359E+02 -0.30099986097E+02  0.97555329516E+02  0.10494893863E+03  0.00000000000E+00 0.  1.
<mgrwt>
<rscale>  0 0.12499612E+03</rscale>
<asrwt>0</asrwt>
<pdfrwt beam="1">  1       21 0.62936197E-01 0.12499612E+03</pdfrwt>
<pdfrwt beam="2">  1       21 0.14689461E-02 0.12499612E+03</pdfrwt>
<totfact> 0.46834023E+06</totfact>
</mgrwt>
</event>
<event>
 9    1  0.4458519E-002  0.1249963E+03  0.7818608E-02  0.1235075E+00
         21   -1    0    0  503  502  0.00000000000E+00  0.00000000000E+00  0.11526674996E+02  0.11526674996E+02  0.00000000000E+00 0.  1.
         21   -1    0    0  502  503 -0.00000000000E+00 -0.00000000000E+00 -0.33886782153E+03  0.33886782153E+03  0.00000000000E+00 0.  1.
         25    2    1    2    0    0 -0.88817841970E-15  0.35527136788E-14 -0.32734114654E+03  0.35039449653E+03  0.12499630787E+03 0.  0.
    9000006    2    3    3    0    0  0.31022604910E+01  0.95840197617E+01 -0.12359302736E+03  0.13775700010E+03  0.60002310048E+02 0.  0.
    9000007    2    3    3    0    0 -0.31022604910E+01 -0.95840197617E+01 -0.20374811918E+03  0.21263749643E+03  0.59999428014E+02 0.  0.
          5    1    4    4  501    0 -0.65474710648E+01 -0.18384428262E+02 -0.92215739996E+02  0.94375257790E+02  0.47000000000E+01 0.  1.
         -5    1    4    4    0  501  0.96497315558E+01  0.27968448024E+02 -0.31377287361E+02  0.43381742313E+02  0.47000000000E+01 0.  1.
         12    1    5    5    0    0 -0.16856247074E+02  0.21207736158E+02 -0.93779398289E+02  0.97613916435E+02  0.00000000000E+00 0. -1.
        -12    1    5    5    0    0  0.13753986583E+02 -0.30791755919E+02 -0.10996872089E+03  0.11502357999E+03  0.00000000000E+00 0. -1.
<mgrwt>
<rscale>  0 0.12499631E+03</rscale>
<asrwt>0</asrwt>
<pdfrwt beam="1">  1       21 0.17733351E-02 0.12499631E+03</pdfrwt>
<pdfrwt beam="2">  1       21 0.52133495E-01 0.12499631E+03</pdfrwt>
<totfact> 0.51514082E+06</totfact>
</mgrwt>
</event>
<event>
 9    1  0.4458519E-002  0.1250072E+03  0.7818608E-02  0.1235058E+00
         21   -1    0    0  503  502  0.00000000000E+00  0.00000000000E+00  0.78065711671E+02  0.78065711671E+02  0.00000000000E+00 0.  1.
         21   -1    0    0  502  503 -0.00000000000E+00 -0.00000000000E+00 -0.50043715552E+02  0.50043715552E+02  0.00000000000E+00 0.  1.
         25    2    1    2    0    0  0.35527136788E-14  0.17763568394E-14  0.28021996119E+02  0.12810942722E+03  0.12500717210E+03 0.  0.
    9000006    2    3    3    0    0 -0.15683157761E+02  0.42462864454E+01  0.73058601961E+01  0.62588941851E+02  0.60000063858E+02 0.  0.
    9000007    2    3    3    0    0  0.15683157761E+02 -0.42462864454E+01  0.20716135923E+02  0.65520485371E+02  0.59998194387E+02 0.  0.
          5    1    4    4  501    0  0.21570882298E+02 -0.46481912545E+00  0.10805206931E+02  0.24583765309E+02  0.47000000000E+01 0. -1.
         -5    1    4    4    0  501 -0.37254040059E+02  0.47111055709E+01 -0.34993467351E+01  0.38005176542E+02  0.47000000000E+01 0. -1.
         12    1    5    5    0    0  0.69769134501E+01  0.25557021091E+02  0.22013252748E+02  0.34444476261E+02  0.00000000000E+00 0. -1.
        -12    1    5    5    0    0  0.87062443109E+01 -0.29803307537E+02 -0.12971168251E+01  0.31076009110E+02  0.00000000000E+00 0. -1.
<mgrwt>
<rscale>  0 0.12500717E+03</rscale>
<asrwt>0</asrwt>
<pdfrwt beam="1">  1       21 0.12010110E-01 0.12500717E+03</pdfrwt>
<pdfrwt beam="2">  1       21 0.76990331E-02 0.12500717E+03</pdfrwt>
<totfact> 0.73605304E+06</totfact>
</mgrwt>
</event>
<event>
 9    1  0.4458519E-002  0.1250023E+03  0.7818608E-02  0.1235066E+00
         21   -1    0    0  503  502  0.00000000000E+00  0.00000000000E+00  0.19334282453E+04  0.19334282453E+04  0.00000000000E+00 0. -1.
         21   -1    0    0  502  503 -0.00000000000E+00 -0.00000000000E+00 -0.20204503096E+01  0.20204503096E+01  0.00000000000E+00 0. -1.
         25    2    1    2    0    0 -0.88817841970E-15  0.00000000000E+00  0.19314077950E+04  0.19354486957E+04  0.12500233113E+03 0.  0.
    9000006    2    3    3    0    0 -0.79437964390E+01 -0.81226437577E+01  0.75961003852E+03  0.76206066580E+03  0.59999720896E+02 0.  0.
    9000007    2    3    3    0    0  0.79437964390E+01  0.81226437577E+01  0.11717977565E+04  0.11733880298E+04  0.60003376320E+02 0.  0.
          5    1    4    4  501    0  0.50583076468E+01  0.20929136089E+02  0.49679509676E+03  0.49728369506E+03  0.47000000000E+01 0. -1.
         -5    1    4    4    0  501 -0.13002104086E+02 -0.29051779847E+02  0.26281494176E+03  0.26477697074E+03  0.47000000000E+01 0. -1.
         12    1    5    5    0    0  0.16581497731E+02 -0.19756319383E+02  0.81159896854E+03  0.81200870929E+03  0.00000000000E+00 0. -1.
        -12    1    5    5    0    0 -0.86377012921E+01  0.27878963141E+02  0.36019878798E+03  0.36137932056E+03  0.00000000000E+00 0. -1.
<mgrwt>
<rscale>  0 0.12500233E+03</rscale>
<asrwt>0</asrwt>
<pdfrwt beam="1">  1       21 0.29744902E+00 0.12500233E+03</pdfrwt>
<pdfrwt beam="2">  1       21 0.31084006E-03 0.12500233E+03</pdfrwt>
<totfact> 0.85943353E+05</totfact>
</mgrwt>
</event>
<event>
 9    1  0.4458519E-002  0.1250009E+03  0.7818608E-02  0.1235068E+00
         21   -1    0    0  503  502  0.00000000000E+00  0.00000000000E+00  0.95934816696E+02  0.95934816696E+02  0.00000000000E+00 0. -1.
         21   -1    0    0  502  503 -0.00000000000E+00 -0.00000000000E+00 -0.40718340631E+02  0.40718340631E+02  0.00000000000E+00 0. -1.
         25    2    1    2    0    0  0.17763568394E-14 -0.35527136788E-14  0.55216476065E+02  0.13665315733E+03  0.12500090471E+03 0.  0.
    9000006    2    3    3    0    0 -0.63995603077E+01 -0.16282603992E+02  0.27113760335E+02  0.68127032850E+02  0.60000492002E+02 0.  0.
    9000007    2    3    3    0    0  0.63995603077E+01  0.16282603992E+02  0.28102715730E+02  0.68526124477E+02  0.59999912830E+02 0.  0.
          5    1    4    4  501    0  0.26106155850E+02 -0.21336497201E+01  0.13712822272E+02  0.29936855698E+02  0.47000000000E+01 0. -1.
         -5    1    4    4    0  501 -0.32505716158E+02 -0.14148954272E+02  0.13400938064E+02  0.38190177152E+02  0.47000000000E+01 0. -1.
         12    1    5    5    0    0  0.20522080146E+02 -0.12480392779E+02  0.27452114987E+02  0.36476493728E+02  0.00000000000E+00 0.  1.
        -12    1    5    5    0    0 -0.14122519839E+02  0.28762996771E+02  0.65060074324E+00  0.32049630749E+02  0.00000000000E+00 0.  1.
<mgrwt>
<rscale>  0 0.12500090E+03</rscale>
<asrwt>0</asrwt>
<pdfrwt beam="1">  1       21 0.14759203E-01 0.12500090E+03</pdfrwt>
<pdfrwt beam="2">  1       21 0.62643601E-02 0.12500090E+03</pdfrwt>
<totfact> 0.72476643E+06</totfact>
</mgrwt>
</event>
<event>
 9    1  0.4458519E-002  0.1249995E+03  0.7818608E-02  0.1235070E+00
         21   -1    0    0  503  502  0.00000000000E+00  0.00000000000E+00  0.20736906231E+02  0.20736906231E+02  0.00000000000E+00 0.  1.
         21   -1    0    0  502  503 -0.00000000000E+00 -0.00000000000E+00 -0.18837026446E+03  0.18837026446E+03  0.00000000000E+00 0.  1.
         25    2    1    2    0    0  0.00000000000E+00 -0.35527136788E-14 -0.16763335823E+03  0.20910717069E+03  0.12499946417E+03 0.  0.
    9000006    2    3    3    0    0  0.14415559542E+02 -0.99150224436E+01 -0.84084012648E+02  0.10476780185E+03  0.60000459121E+02 0.  0.
    9000007    2    3    3    0    0 -0.14415559542E+02  0.99150224436E+01 -0.83549345578E+02  0.10433936884E+03  0.60000789294E+02 0.  0.
          5    1    4    4  501    0  0.29917443258E+01 -0.32011623213E+02 -0.26727338636E+02  0.42072974525E+02  0.47000000000E+01 0.  1.
         -5    1    4    4    0  501  0.11423815217E+02  0.22096600770E+02 -0.57356674012E+02  0.62694827326E+02  0.47000000000E+01 0.  1.
         12    1    5    5    0    0 -0.23416362611E+01 -0.20224019184E+02 -0.62285335549E+02  0.65528293406E+02  0.00000000000E+00 0.  1.
        -12    1    5    5    0    0 -0.12073923281E+02  0.30139041627E+02 -0.21264010029E+02  0.38811075431E+02  0.00000000000E+00 0.  1.
<mgrwt>
<rscale>  0 0.12499946E+03</rscale>
<asrwt>0</asrwt>
<pdfrwt beam="1">  1       21 0.31902933E-02 0.12499946E+03</pdfrwt>
<pdfrwt beam="2">  1       21 0.28980040E-01 0.12499946E+03</pdfrwt>
<totfact> 0.63954461E+06</totfact>
</mgrwt>
</event>
<event>
 9    1  0.4458519E-002  0.1250000E+03  0.7818608E-02  0.1235069E+00
         21   -1    0    0  503  502  0.00000000000E+00  0.00000000000E+00  0.77778869993E+02  0.77778869993E+02  0.00000000000E+00 0. -1.
         21   -1    0    0  502  503 -0.00000000000E+00 -0.00000000000E+00 -0.50222531713E+02  0.50222531713E+02  0.00000000000E+00 0. -1.
         25    2    1    2    0    0  0.00000000000E+00  0.00000000000E+00  0.27556338279E+02  0.12800140171E+03  0.12500002824E+03 0.  0.
    9000006    2    3    3    0    0 -0.23832340818E+01 -0.15591217122E+02  0.21552917259E+02  0.65673322132E+02  0.59997426123E+02 0.  0.
    9000007    2    3    3    0    0  0.23832340818E+01  0.15591217122E+02  0.60034210197E+01  0.62328079574E+02  0.59999854862E+02 0.  0.
          5    1    4    4  501    0 -0.23480350401E+02 -0.27411701362E+02  0.18559499921E+02  0.40856740739E+02  0.47000000000E+01 0. -1.
         -5    1    4    4    0  501  0.21097116319E+02  0.11820484240E+02  0.29934173381E+01  0.24816581393E+02  0.47000000000E+01 0. -1.
         12    1    5    5    0    0 -0.26384303677E+02  0.13760196597E+02  0.13298855363E+02  0.32593466291E+02  0.00000000000E+00 0.  1.
        -12    1    5    5    0    0  0.28767537758E+02  0.18310205254E+01 -0.72954343434E+01  0.29734613283E+02  0.00000000000E+00 0.  1.
<mgrwt>
<rscale>  0 0.12500003E+03</rscale>
<asrwt>0</asrwt>
<pdfrwt beam="1">  1       21 0.11965980E-01 0.12500003E+03</pdfrwt>
<pdfrwt beam="2">  1       21 0.77265434E-02 0.12500003E+03</pdfrwt>
<totfact> 0.73633317E+06</totfact>
</mgrwt>
</event>
<event>
 9    1  0.4458519E-002  0.1250025E+03  0.7818608E-02  0.1235065E+00
         21   -1    0    0  503  502  0.00000000000E+00  0.00000000000E+00  0.16869951863E+02  0.16869951863E+02  0.00000000000E+00 0. -1.
         21   -1    0    0  502  503 -0.00000000000E+00 -0.00000000000E+00 -0.23156012063E+03  0.23156012063E+03  0.00000000000E+00 0. -1.
         25    2    1    2    0    0  0.00000000000E+00  0.35527136788E-14 -0.21469016877E+03  0.24843007249E+03  0.12500252939E+03 0.  0.
    9000006    2    3    3    0    0  0.35694006270E+00 -0.86866077520E+01 -0.13753089466E+03  0.15030186674E+03  0.60002663260E+02 0.  0.
    9000007    2    3    3    0    0 -0.35694006270E+00  0.86866077520E+01 -0.77159274107E+02  0.98128205756E+02  0.60000055198E+02 0.  0.
          5    1    4    4  501    0 -0.59813736593E+01  0.24438499736E+02 -0.45988420632E+02  0.52631187830E+02  0.47000000000E+01 0. -1.
         -5    1    4    4    0  501  0.63383137220E+01 -0.33125107488E+02 -0.91542474028E+02  0.97670678907E+02  0.47000000000E+01 0. -1.
         12    1    5    5    0    0 -0.12939594816E+02  0.30035757263E+02 -0.27906347957E+02  0.42992372400E+02  0.00000000000E+00 0.  1.
        -12    1    5    5    0    0  0.12582654753E+02 -0.21349149511E+02 -0.49252926150E+02  0.55135833356E+02  0.00000000000E+00 0.  1.
<mgrwt>
<rscale>  0 0.12500253E+03</rscale>
<asrwt>0</asrwt>
<pdfrwt beam="1">  1       21 0.25953772E-02 0.12500253E+03</pdfrwt>
<pdfrwt beam="2">  1       21 0.35624634E-01 0.12500253E+03</pdfrwt>
<totfact> 0.60022483E+06</totfact>
</mgrwt>
</event>
<event>
 9    1  0.4458519E-002  0.1249979E+03  0.7818608E-02  0.1235073E+00
         21   -1    0    0  503  502  0.00000000000E+00  0.00000000000E+00  0.74206244135E+02  0.74206244135E+02  0.00000000000E+00 0.  1.
         21   -1    0    0  502  503 -0.00000000000E+00 -0.00000000000E+00 -0.52638661408E+02  0.52638661408E+02  0.00000000000E+00 0.  1.
         25    2    1    2    0    0 -0.35527136788E-14 -0.17763568394E-14  0.21567582727E+02  0.12684490554E+03  0.12499787773E+03 0.  0.
    9000006    2    3    3    0    0  0.17487222253E+02 -0.56763223051E+00  0.10891968376E+02  0.63441324048E+02  0.60000345610E+02 0.  0.
    9000007    2    3    3    0    0 -0.17487222253E+02  0.56763223051E+00  0.10675614350E+02  0.63403581495E+02  0.59999335465E+02 0.  0.
          5    1    4    4  501    0 -0.10601043580E+02 -0.68672677226E+01  0.26960123854E+02  0.30140998145E+02  0.47000000000E+01 0.  1.
         -5    1    4    4    0  501  0.28088265833E+02  0.62996354921E+01 -0.16068155477E+02  0.33300325903E+02  0.47000000000E+01 0.  1.
         12    1    5    5    0    0 -0.86220557208E+01 -0.21731687460E+02 -0.15377170050E+02  0.27983270778E+02  0.00000000000E+00 0.  1.
        -12    1    5    5    0    0 -0.88651665324E+01  0.22299319690E+02  0.26052784400E+02  0.35420310717E+02  0.00000000000E+00 0.  1.
<mgrwt>
<rscale>  0 0.12499788E+03</rscale>
<asrwt>0</asrwt>
<pdfrwt beam="1">  1       21 0.11416345E-01 0.12499788E+03</pdfrwt>
<pdfrwt beam="2">  1       21 0.80982556E-02 0.12499788E+03</pdfrwt>
<totfact> 0.73794262E+06</totfact>
</mgrwt>
</event>
<event>
 9    1  0.4458519E-002  0.1249837E+03  0.7818608E-02  0.1235095E+00
         21   -1    0    0  503  502  0.00000000000E+00  0.00000000000E+00  0.14790019478E+02  0.14790019478E+02  0.00000000000E+00 0. -1.
         21   -1    0    0  502  503 -0.00000000000E+00 -0.00000000000E+00 -0.26404516108E+03  0.26404516108E+03  0.00000000000E+00 0. -1.
         25    2    1    2    0    0 -0.17763568394E-14  0.00000000000E+00 -0.24925514161E+03  0.27883518056E+03  0.12498372815E+03 0.  0.
    9000006    2    3    3    0    0  0.50473561876E+01  0.15432477308E+02 -0.13903081989E+03  0.15229252481E+03  0.59998392265E+02 0.  0.
    9000007    2    3    3    0    0 -0.50473561876E+01 -0.15432477308E+02 -0.11022432172E+03  0.12654265575E+03  0.60000045547E+02 0.  0.
          5    1    4    4  501    0  0.32209962119E+01  0.16066465434E+02 -0.14410569802E+03  0.14511046941E+03  0.47000000000E+01 0. -1.
         -5    1    4    4    0  501  0.18263599757E+01 -0.63398812654E+00  0.50748781382E+01  0.71820554038E+01  0.47000000000E+01 0. -1.
         12    1    5    5    0    0 -0.27594153060E+02 -0.13352610298E+02 -0.93489434981E+02  0.98387011022E+02  0.00000000000E+00 0.  1.
        -12    1    5    5    0    0  0.22546796872E+02 -0.20798670100E+01 -0.16734886740E+02  0.28155644730E+02  0.00000000000E+00 0.  1.
<mgrwt>
<rscale>  0 0.12498373E+03</rscale>
<asrwt>0</asrwt>
<pdfrwt beam="1">  1       21 0.22753877E-02 0.12498373E+03</pdfrwt>
<pdfrwt beam="2">  1       21 0.40622330E-01 0.12498373E+03</pdfrwt>
<totfact> 0.57285681E+06</totfact>
</mgrwt>
</event>
<event>
 9    1  0.4458519E-002  0.1249983E+03  0.7818608E-02  0.1235072E+00
         21   -1    0    0  503  502  0.00000000000E+00  0.00000000000E+00  0.31179830387E+02  0.31179830387E+02  0.00000000000E+00 0. -1.
         21   -1    0    0  502  503 -0.00000000000E+00 -0.00000000000E+00 -0.12527781684E+03  0.12527781684E+03  0.00000000000E+00 0. -1.
         25    2    1    2    0    0  0.00000000000E+00 -0.17763568394E-14 -0.94097986453E+02  0.15645764723E+03  0.12499825727E+03 0.  0.
    9000006    2    3    3    0    0  0.17155887241E+02  0.18872560561E+01 -0.50661728482E+02  0.80402074882E+02  0.59999972584E+02 0.  0.
    9000007    2    3    3    0    0 -0.17155887241E+02 -0.18872560561E+01 -0.43436257970E+02  0.76055572345E+02  0.59998794787E+02 0.  0.
          5    1    4    4  501    0 -0.15382879592E+02  0.12435824377E+02 -0.15805057206E+01  0.20392908346E+02  0.47000000000E+01 0. -1.
         -5    1    4    4    0  501  0.32538766832E+02 -0.10548568321E+02 -0.49081222762E+02  0.60009166536E+02  0.47000000000E+01 0. -1.
         12    1    5    5    0    0 -0.37383733511E+02 -0.12555392798E+02 -0.29811231558E+02  0.49435725407E+02  0.00000000000E+00 0.  1.
        -12    1    5    5    0    0  0.20227846270E+02  0.10668136742E+02 -0.13625026412E+02  0.26619846938E+02  0.00000000000E+00 0.  1.
<mgrwt>
<rscale>  0 0.12499826E+03</rscale>
<asrwt>0</asrwt>
<pdfrwt beam="1">  1       21 0.47968969E-02 0.12499826E+03</pdfrwt>
<pdfrwt beam="2">  1       21 0.19273511E-01 0.12499826E+03</pdfrwt>
<totfact> 0.69958044E+06</totfact>
</mgrwt>
</event>
<event>
 9    1  0.4458519E-002  0.1249995E+03  0.7818608E-02  0.1235070E+00
         21   -1    0    0  503  502  0.00000000000E+00  0.00000000000E+00  0.41979844587E+01  0.41979844587E+01  0.00000000000E+00 0. -1.
         21   -1    0    0  502  503 -0.00000000000E+00 -0.00000000000E+00 -0.93049810607E+03  0.93049810607E+03  0.00000000000E+00 0. -1.
         25    2    1    2    0    0  0.88817841970E-15 -0.35527136788E-14 -0.92630012161E+03  0.93469609053E+03  0.12499946541E+03 0.  0.
    9000006    2    3    3    0    0  0.12616193187E+01  0.14149422015E+02 -0.38677832616E+03  0.39166203725E+03  0.59999000043E+02 0.  0.
    9000007    2    3    3    0    0 -0.12616193187E+01 -0.14149422015E+02 -0.53952179545E+03  0.54303405328E+03  0.60003478487E+02 0.  0.
          5    1    4    4  501    0  0.35192061543E+01 -0.19747107081E+02 -0.68216572785E+02  0.71259552711E+02  0.47000000000E+01 0. -1.
         -5    1    4    4    0  501 -0.22575868357E+01  0.33896529096E+02 -0.31856175338E+03  0.32040248454E+03  0.47000000000E+01 0. -1.
         12    1    5    5    0    0 -0.18758431796E+02 -0.31724846025E+02 -0.32636373111E+03  0.32843816709E+03  0.00000000000E+00 0. -1.
        -12    1    5    5    0    0  0.17496812477E+02  0.17575424011E+02 -0.21315806434E+03  0.21459588619E+03  0.00000000000E+00 0. -1.
<mgrwt>
<rscale>  0 0.12499947E+03</rscale>
<asrwt>0</asrwt>
<pdfrwt beam="1">  1       21 0.64584362E-03 0.12499947E+03</pdfrwt>
<pdfrwt beam="2">  1       21 0.14315359E+00 0.12499947E+03</pdfrwt>
<totfact> 0.25326004E+06</totfact>
</mgrwt>
</event>
<event>
 9    1  0.4458519E-002  0.1249986E+03  0.7818608E-02  0.1235072E+00
         21   -1    0    0  503  502  0.00000000000E+00  0.00000000000E+00  0.15787518324E+03  0.15787518324E+03  0.00000000000E+00 0.  1.
         21   -1    0    0  502  503 -0.00000000000E+00 -0.00000000000E+00 -0.24742080191E+02  0.24742080191E+02  0.00000000000E+00 0.  1.
         25    2    1    2    0    0  0.00000000000E+00  0.17763568394E-14  0.13313310305E+03  0.18261726343E+03  0.12499856709E+03 0.  0.
    9000006    2    3    3    0    0  0.17266370475E+02  0.29227971023E+01  0.66662574539E+02  0.91377418449E+02  0.59993861902E+02 0.  0.
    9000007    2    3    3    0    0 -0.17266370475E+02 -0.29227971023E+01  0.66470528509E+02  0.91239844980E+02  0.59997565446E+02 0.  0.
          5    1    4    4  501    0 -0.17849443452E+01 -0.16411661378E+02  0.60848478617E+02  0.63223065455E+02  0.47000000000E+01 0. -1.
         -5    1    4    4    0  501  0.19051314820E+02  0.19334458480E+02  0.58140959216E+01  0.28154352994E+02  0.47000000000E+01 0. -1.
         12    1    5    5    0    0 -0.27486538775E+02  0.11564611081E+02  0.90783595714E+01  0.31171568067E+02  0.00000000000E+00 0. -1.
        -12    1    5    5    0    0  0.10220168299E+02 -0.14487408184E+02  0.57392168937E+02  0.60068276913E+02  0.00000000000E+00 0. -1.
<mgrwt>
<rscale>  0 0.12499857E+03</rscale>
<asrwt>0</asrwt>
<pdfrwt beam="1">  1       21 0.24288489E-01 0.12499857E+03</pdfrwt>
<pdfrwt beam="2">  1       21 0.38064740E-02 0.12499857E+03</pdfrwt>
<totfact> 0.66854983E+06</totfact>
</mgrwt>
</event>
<event>
 9    1  0.4458519E-002  0.1249997E+03  0.7818608E-02  0.1235070E+00
         21   -1    0    0  503  502  0.00000000000E+00  0.00000000000E+00  0.17239327382E+02  0.17239327382E+02  0.00000000000E+00 0.  1.
         21   -1    0    0  502  503 -0.00000000000E+00 -0.00000000000E+00 -0.22658825725E+03  0.22658825725E+03  0.00000000000E+00 0.  1.
         25    2    1    2    0    0  0.00000000000E+00 -0.17763568394E-14 -0.20934892987E+03  0.24382758463E+03  0.12499966636E+03 0.  0.
    9000006    2    3    3    0    0  0.10219854222E+01  0.69338562388E+01 -0.13595346944E+03  0.14876978574E+03  0.59999837339E+02 0.  0.
    9000007    2    3    3    0    0 -0.10219854222E+01 -0.69338562388E+01 -0.73395460433E+02  0.95057798894E+02  0.59999739182E+02 0.  0.
          5    1    4    4  501    0 -0.15968334232E+02 -0.20734932637E+02 -0.74575156511E+02  0.79173664171E+02  0.47000000000E+01 0.  1.
         -5    1    4    4    0  501  0.16990319654E+02  0.27668788876E+02 -0.61378312925E+02  0.69596121569E+02  0.47000000000E+01 0.  1.
         12    1    5    5    0    0  0.80807122270E+01 -0.21663747228E+02 -0.39133506084E+01  0.23450589908E+02  0.00000000000E+00 0. -1.
        -12    1    5    5    0    0 -0.91026976492E+01  0.14729890989E+02 -0.69482109825E+02  0.71607208986E+02  0.00000000000E+00 0. -1.
<mgrwt>
<rscale>  0 0.12499967E+03</rscale>
<asrwt>0</asrwt>
<pdfrwt beam="1">  1       21 0.26522043E-02 0.12499967E+03</pdfrwt>
<pdfrwt beam="2">  1       21 0.34859731E-01 0.12499967E+03</pdfrwt>
<totfact> 0.60464739E+06</totfact>
</mgrwt>
</event>
<event>
 9    1  0.4458519E-002  0.1249977E+03  0.7818608E-02  0.1235073E+00
         21   -1    0    0  503  502  0.00000000000E+00  0.00000000000E+00  0.27021345729E+02  0.27021345729E+02  0.00000000000E+00 0. -1.
         21   -1    0    0  502  503 -0.00000000000E+00 -0.00000000000E+00 -0.14455626902E+03  0.14455626902E+03  0.00000000000E+00 0. -1.
         25    2    1    2    0    0  0.53290705182E-14 -0.35527136788E-14 -0.11753492330E+03  0.17157761475E+03  0.12499767874E+03 0.  0.
    9000006    2    3    3    0    0 -0.10167084526E+02 -0.66092872358E+00 -0.39249557705E+02  0.72418369371E+02  0.60000716727E+02 0.  0.
    9000007    2    3    3    0    0  0.10167084526E+02  0.66092872358E+00 -0.78285365590E+02  0.99159245382E+02  0.60001258691E+02 0.  0.
          5    1    4    4  501    0 -0.29841710069E+02 -0.17066209275E+02 -0.24642812611E+02  0.42557506650E+02  0.47000000000E+01 0.  1.
         -5    1    4    4    0  501  0.19674625543E+02  0.16405280551E+02 -0.14606745094E+02  0.29860862721E+02  0.47000000000E+01 0.  1.
         12    1    5    5    0    0  0.16729770727E+02  0.26230169508E+02 -0.58182934257E+02  0.65978487856E+02  0.00000000000E+00 0.  1.
        -12    1    5    5    0    0 -0.65626862010E+01 -0.25569240785E+02 -0.20102431333E+02  0.33180757526E+02  0.00000000000E+00 0.  1.
<mgrwt>
<rscale>  0 0.12499768E+03</rscale>
<asrwt>0</asrwt>
<pdfrwt beam="1">  1       21 0.41571300E-02 0.12499768E+03</pdfrwt>
<pdfrwt beam="2">  1       21 0.22239427E-01 0.12499768E+03</pdfrwt>
<totfact> 0.68135123E+06</totfact>
</mgrwt>
</event>
<event>
 9    1  0.4458519E-002  0.1250408E+03  0.7818608E-02  0.1235006E+00
         21   -1    0    0  503  502  0.00000000000E+00  0.00000000000E+00  0.29619558662E+02  0.29619558662E+02  0.00000000000E+00 0.  1.
         21   -1    0    0  502  503 -0.00000000000E+00 -0.00000000000E+00 -0.13196682300E+03  0.13196682300E+03  0.00000000000E+00 0.  1.
         25    2    1    2    0    0  0.17763568394E-14  0.35527136788E-14 -0.10234726434E+03  0.16158638166E+03  0.12504077824E+03 0.  0.
    9000006    2    3    3    0    0 -0.41938702725E+01 -0.15178122369E+02 -0.41092523141E+02  0.74407713943E+02  0.59999570746E+02 0.  0.
    9000007    2    3    3    0    0  0.41938702725E+01  0.15178122369E+02 -0.61254741199E+02  0.87178667721E+02  0.60000106998E+02 0.  0.
          5    1    4    4  501    0  0.11434384508E+02  0.14592275331E+02  0.23542088881E+01  0.19269456347E+02  0.47000000000E+01 0. -1.
         -5    1    4    4    0  501 -0.15628254781E+02 -0.29770397701E+02 -0.43446732029E+02  0.55138257596E+02  0.47000000000E+01 0. -1.
         12    1    5    5    0    0 -0.18264651833E+02 -0.14385245335E+02 -0.33710254957E+02  0.40950141382E+02  0.00000000000E+00 0.  1.
        -12    1    5    5    0    0  0.22458522106E+02  0.29563367704E+02 -0.27544486242E+02  0.46228526339E+02  0.00000000000E+00 0.  1.
<mgrwt>
<rscale>  0 0.12504078E+03</rscale>
<asrwt>0</asrwt>
<pdfrwt beam="1">  1       21 0.45568552E-02 0.12504078E+03</pdfrwt>
<pdfrwt beam="2">  1       21 0.20302588E-01 0.12504078E+03</pdfrwt>
<totfact> 0.69254360E+06</totfact>
</mgrwt>
</event>
<event>
 9    1  0.4458519E-002  0.1249964E+03  0.7818608E-02  0.1235075E+00
         21   -1    0    0  503  502  0.00000000000E+00  0.00000000000E+00  0.72164430194E+02  0.72164430194E+02  0.00000000000E+00 0.  1.
         21   -1    0    0  502  503 -0.00000000000E+00 -0.00000000000E+00 -0.54126760319E+02  0.54126760319E+02  0.00000000000E+00 0.  1.
         25    2    1    2    0    0 -0.17763568394E-14 -0.35527136788E-14  0.18037669875E+02  0.12629119051E+03  0.12499642902E+03 0.  0.
    9000006    2    3    3    0    0  0.50281760397E+00  0.17410114597E+02  0.10652984829E+02  0.63378947176E+02  0.60000332862E+02 0.  0.
    9000007    2    3    3    0    0 -0.50281760397E+00 -0.17410114597E+02  0.73846850463E+01  0.62912243338E+02  0.60000432271E+02 0.  0.
          5    1    4    4  501    0  0.26258206854E+02  0.20127846322E+02  0.15124268106E+02  0.36680473150E+02  0.47000000000E+01 0. -1.
         -5    1    4    4    0  501 -0.25755389250E+02 -0.27177317251E+01 -0.44712832770E+01  0.26698474026E+02  0.47000000000E+01 0. -1.
         12    1    5    5    0    0  0.11330202203E+02  0.11804785980E+02  0.22608314687E+02  0.27908105399E+02  0.00000000000E+00 0.  1.
        -12    1    5    5    0    0 -0.11833019807E+02 -0.29214900576E+02 -0.15223629640E+02  0.35004137939E+02  0.00000000000E+00 0.  1.
<mgrwt>
<rscale>  0 0.12499643E+03</rscale>
<asrwt>0</asrwt>
<pdfrwt beam="1">  1       21 0.11102220E-01 0.12499643E+03</pdfrwt>
<pdfrwt beam="2">  1       21 0.83271938E-02 0.12499643E+03</pdfrwt>
<totfact> 0.73872719E+06</totfact>
</mgrwt>
</event>
<event>
 9    1  0.4458519E-002  0.1249988E+03  0.7818608E-02  0.1235071E+00
         21   -1    0    0  503  502  0.00000000000E+00  0.00000000000E+00  0.23384204426E+03  0.23384204426E+03  0.00000000000E+00 0. -1.
         21   -1    0    0  502  503 -0.00000000000E+00 -0.00000000000E+00 -0.16704340859E+02  0.16704340859E+02  0.00000000000E+00 0. -1.
         25    2    1    2    0    0  0.35527136788E-14  0.00000000000E+00  0.21713770341E+03  0.25054638512E+03  0.12499883543E+03 0.  0.
    9000006    2    3    3    0    0  0.15791871130E+02 -0.38735703822E+01  0.95608205055E+02  0.11404075275E+03  0.59999805602E+02 0.  0.
    9000007    2    3    3    0    0 -0.15791871130E+02  0.38735703822E+01  0.12152949835E+03  0.13650563238E+03  0.59999841327E+02 0.  0.
          5    1    4    4  501    0 -0.91190816405E+01  0.15004469877E+01  0.85656554147E+02  0.86281772463E+02  0.47000000000E+01 0.  1.
         -5    1    4    4    0  501  0.24910952771E+02 -0.53740173698E+01  0.99516509077E+01  0.27758980284E+02  0.47000000000E+01 0.  1.
         12    1    5    5    0    0  0.17710377438E+01 -0.14923229923E+02  0.10468111540E+03  0.10575431569E+03  0.00000000000E+00 0.  1.
        -12    1    5    5    0    0 -0.17562908874E+02  0.18796800305E+02  0.16848382956E+02  0.30751316688E+02  0.00000000000E+00 0.  1.
<mgrwt>
<rscale>  0 0.12499884E+03</rscale>
<asrwt>0</asrwt>
<pdfrwt beam="1">  1       21 0.35975697E-01 0.12499884E+03</pdfrwt>
<pdfrwt beam="2">  1       21 0.25698988E-02 0.12499884E+03</pdfrwt>
<totfact> 0.59828543E+06</totfact>
</mgrwt>
</event>
<event>
 9    1  0.4458519E-002  0.1249984E+03  0.7818608E-02  0.1235072E+00
         21   -1    0    0  503  502  0.00000000000E+00  0.00000000000E+00  0.11559030934E+02  0.11559030934E+02  0.00000000000E+00 0. -1.
         21   -1    0    0  502  503 -0.00000000000E+00 -0.00000000000E+00 -0.33793070198E+03  0.33793070198E+03  0.00000000000E+00 0. -1.
         25    2    1    2    0    0  0.17763568394E-14  0.00000000000E+00 -0.32637167104E+03  0.34948973291E+03  0.12499842299E+03 0.  0.
    9000006    2    3    3    0    0  0.12186016096E+02  0.22080803883E+01 -0.19775799667E+03  0.20702954895E+03  0.59996952298E+02 0.  0.
    9000007    2    3    3    0    0 -0.12186016096E+02 -0.22080803883E+01 -0.12861367437E+03  0.14246018396E+03  0.60000434753E+02 0.  0.
          5    1    4    4  501    0 -0.18962809967E+02 -0.12074056465E+02 -0.46436823808E+02  0.51805787386E+02  0.47000000000E+01 0. -1.
         -5    1    4    4    0  501  0.31148826064E+02  0.14282136853E+02 -0.15132117286E+03  0.15522376157E+03  0.47000000000E+01 0. -1.
         12    1    5    5    0    0 -0.58710889473E+01 -0.25234965105E+02 -0.24551449849E+02  0.35693792723E+02  0.00000000000E+00 0. -1.
        -12    1    5    5    0    0 -0.63149271491E+01  0.23026884716E+02 -0.10406222452E+03  0.10676639123E+03  0.00000000000E+00 0. -1.
<mgrwt>
<rscale>  0 0.12499842E+03</rscale>
<asrwt>0</asrwt>
<pdfrwt beam="1">  1       21 0.17783126E-02 0.12499842E+03</pdfrwt>
<pdfrwt beam="2">  1       21 0.51989335E-01 0.12499842E+03</pdfrwt>
<totfact> 0.51578178E+06</totfact>
</mgrwt>
</event>
<event>
 9    1  0.4458519E-002  0.1250011E+03  0.7818608E-02  0.1235067E+00
         21   -1    0    0  503  502  0.00000000000E+00  0.00000000000E+00  0.31251118404E+02  0.31251118404E+02  0.00000000000E+00 0.  1.
         21   -1    0    0  502  503 -0.00000000000E+00 -0.00000000000E+00 -0.12499781024E+03  0.12499781024E+03  0.00000000000E+00 0.  1.
         25    2    1    2    0    0  0.00000000000E+00  0.00000000000E+00 -0.93746691838E+02  0.15624892865E+03  0.12500114188E+03 0.  0.
    9000006    2    3    3    0    0 -0.57400259244E+01 -0.13009087542E+01 -0.26261105890E+02  0.65759160049E+02  0.59999843221E+02 0.  0.
    9000007    2    3    3    0    0  0.57400259244E+01  0.13009087542E+01 -0.67485585949E+02  0.90489768598E+02  0.59995446901E+02 0.  0.
          5    1    4    4  501    0 -0.10169063058E+02  0.23802712338E+02  0.32195670851E+01  0.26503482231E+02  0.47000000000E+01 0.  1.
         -5    1    4    4    0  501  0.44290371341E+01 -0.25103621092E+02 -0.29480672975E+02  0.39255677818E+02  0.47000000000E+01 0.  1.
         12    1    5    5    0    0  0.29457760188E+02 -0.13392742736E+02 -0.37502622872E+02  0.49533543337E+02  0.00000000000E+00 0. -1.
        -12    1    5    5    0    0 -0.23717734263E+02  0.14693651490E+02 -0.29982963077E+02  0.40956225260E+02  0.00000000000E+00 0. -1.
<mgrwt>
<rscale>  0 0.12500114E+03</rscale>
<asrwt>0</asrwt>
<pdfrwt beam="1">  1       21 0.48078644E-02 0.12500114E+03</pdfrwt>
<pdfrwt beam="2">  1       21 0.19230432E-01 0.12500114E+03</pdfrwt>
<totfact> 0.69978732E+06</totfact>
</mgrwt>
</event>
<event>
 9    1  0.4458519E-002  0.1249954E+03  0.7818608E-02  0.1235076E+00
         21   -1    0    0  503  502  0.00000000000E+00  0.00000000000E+00  0.10950402884E+02  0.10950402884E+02  0.00000000000E+00 0. -1.
         21   -1    0    0  502  503 -0.00000000000E+00 -0.00000000000E+00 -0.35669597107E+03  0.35669597107E+03  0.00000000000E+00 0. -1.
         25    2    1    2    0    0  0.00000000000E+00 -0.17763568394E-14 -0.34574556818E+03  0.36764637395E+03  0.12499543336E+03 0.  0.
    9000006    2    3    3    0    0  0.14552388679E+02 -0.49891834691E+01 -0.14842170966E+03  0.16082908429E+03  0.60002720681E+02 0.  0.
    9000007    2    3    3    0    0 -0.14552388679E+02  0.49891834691E+01 -0.19732385853E+03  0.20681728966E+03  0.60000184915E+02 0.  0.
          5    1    4    4  501    0  0.14965526278E+02  0.23037307764E+02 -0.10716962191E+03  0.11073437762E+03  0.47000000000E+01 0.  1.
         -5    1    4    4    0  501 -0.41313759957E+00 -0.28026491233E+02 -0.41252087747E+02  0.50094706676E+02  0.47000000000E+01 0.  1.
         12    1    5    5    0    0 -0.23854601285E+02 -0.98000446773E+01 -0.34576840312E+02  0.43135145348E+02  0.00000000000E+00 0.  1.
        -12    1    5    5    0    0  0.93022126067E+01  0.14789228146E+02 -0.16274701821E+03  0.16368214431E+03  0.00000000000E+00 0.  1.
<mgrwt>
<rscale>  0 0.12499543E+03</rscale>
<asrwt>0</asrwt>
<pdfrwt beam="1">  1       21 0.16846775E-02 0.12499543E+03</pdfrwt>
<pdfrwt beam="2">  1       21 0.54876299E-01 0.12499543E+03</pdfrwt>
<totfact> 0.50266768E+06</totfact>
</mgrwt>
</event>
<event>
 9    1  0.4458519E-002  0.1250011E+03  0.7818608E-02  0.1235068E+00
         21   -1    0    0  503  502  0.00000000000E+00  0.00000000000E+00  0.10358943178E+03  0.10358943178E+03  0.00000000000E+00 0.  1.
         21   -1    0    0  502  503 -0.00000000000E+00 -0.00000000000E+00 -0.37709598578E+02  0.37709598578E+02  0.00000000000E+00 0.  1.
         25    2    1    2    0    0  0.00000000000E+00  0.00000000000E+00  0.65879833201E+02  0.14129903036E+03  0.12500105423E+03 0.  0.
    9000006    2    3    3    0    0 -0.53345991928E+01  0.14500174878E+02  0.23647631407E+02  0.66317043165E+02  0.60000222691E+02 0.  0.
    9000007    2    3    3    0    0  0.53345991928E+01 -0.14500174878E+02  0.42232201795E+02  0.74981987193E+02  0.60000220957E+02 0.  0.
          5    1    4    4  501    0  0.23135803502E+01 -0.79469199709E+01  0.37339481865E+02  0.38533532112E+02  0.47000000000E+01 0.  1.
         -5    1    4    4    0  501 -0.76481795430E+01  0.22447094849E+02 -0.13691850458E+02  0.27783511053E+02  0.47000000000E+01 0.  1.
         12    1    5    5    0    0 -0.21308482935E+02 -0.93183167109E+01 -0.17243801866E+01  0.23320719508E+02  0.00000000000E+00 0. -1.
        -12    1    5    5    0    0  0.26643082128E+02 -0.51818581668E+01  0.43956581981E+02  0.51661267685E+02  0.00000000000E+00 0. -1.
<mgrwt>
<rscale>  0 0.12500105E+03</rscale>
<asrwt>0</asrwt>
<pdfrwt beam="1">  1       21 0.15936836E-01 0.12500105E+03</pdfrwt>
<pdfrwt beam="2">  1       21 0.58014767E-02 0.12500105E+03</pdfrwt>
<totfact> 0.71868243E+06</totfact>
</mgrwt>
</event>
<event>
 9    1  0.4458519E-002  0.1250006E+03  0.7818608E-02  0.1235068E+00
         21   -1    0    0  503  502  0.00000000000E+00  0.00000000000E+00  0.14090359294E+02  0.14090359294E+02  0.00000000000E+00 0.  1.
         21   -1    0    0  502  503 -0.00000000000E+00 -0.00000000000E+00 -0.27723110813E+03  0.27723110813E+03  0.00000000000E+00 0.  1.
         25    2    1    2    0    0 -0.88817841970E-15 -0.17763568394E-14 -0.26314074884E+03  0.29132146742E+03  0.12500057474E+03 0.  0.
    9000006    2    3    3    0    0  0.21446263751E+01 -0.53051893915E+00 -0.91097673899E+02  0.10910282535E+03  0.59997995282E+02 0.  0.
    9000007    2    3    3    0    0 -0.21446263751E+01  0.53051893915E+00 -0.17204307494E+03  0.18221864207E+03  0.59999441760E+02 0.  0.
          5    1    4    4  501    0  0.17350658331E+01  0.18402939504E+02 -0.35414512884E+01  0.19398724521E+02  0.47000000000E+01 0. -1.
         -5    1    4    4    0  501  0.40956054197E+00 -0.18933458443E+02 -0.87556222610E+02  0.89704100833E+02  0.47000000000E+01 0. -1.
         12    1    5    5    0    0  0.10876511448E+02  0.13676902586E+02 -0.15806734278E+03  0.15903031478E+03  0.00000000000E+00 0.  1.
        -12    1    5    5    0    0 -0.13021137823E+02 -0.13146383647E+02 -0.13975732159E+02  0.23188327291E+02  0.00000000000E+00 0.  1.
<mgrwt>
<rscale>  0 0.12500057E+03</rscale>
<asrwt>0</asrwt>
<pdfrwt beam="1">  1       21 0.21677479E-02 0.12500057E+03</pdfrwt>
<pdfrwt beam="2">  1       21 0.42650934E-01 0.12500057E+03</pdfrwt>
<totfact> 0.56184385E+06</totfact>
</mgrwt>
</event>
<event>
 9    1  0.4458519E-002  0.1250154E+03  0.7818608E-02  0.1235045E+00
         21   -1    0    0  503  502  0.00000000000E+00  0.00000000000E+00  0.29541472728E+02  0.29541472728E+02  0.00000000000E+00 0. -1.
         21   -1    0    0  502  503 -0.00000000000E+00 -0.00000000000E+00 -0.13226184298E+03  0.13226184298E+03  0.00000000000E+00 0. -1.
         25    2    1    2    0    0  0.00000000000E+00 -0.35527136788E-14 -0.10272037025E+03  0.16180331571E+03  0.12501535310E+03 0.  0.
    9000006    2    3    3    0    0  0.66189773060E+01 -0.11263213794E+02 -0.66471666319E+02  0.90493971305E+02  0.60000046448E+02 0.  0.
    9000007    2    3    3    0    0 -0.66189773060E+01  0.11263213794E+02 -0.36248703935E+02  0.71309344405E+02  0.60003193390E+02 0.  0.
          5    1    4    4  501    0  0.81289312109E+01  0.35671543523E+00 -0.74787975702E+02  0.75375978124E+02  0.47000000000E+01 0. -1.
         -5    1    4    4    0  501 -0.15099539049E+01 -0.11619929229E+02  0.83163093826E+01  0.15117993181E+02  0.47000000000E+01 0. -1.
         12    1    5    5    0    0  0.24453411812E+02  0.12424875759E+02 -0.27875859895E+02  0.39107677658E+02  0.00000000000E+00 0. -1.
        -12    1    5    5    0    0 -0.31072389118E+02 -0.11616619651E+01 -0.83728440395E+01  0.32201666748E+02  0.00000000000E+00 0. -1.
<mgrwt>
<rscale>  0 0.12501535E+03</rscale>
<asrwt>0</asrwt>
<pdfrwt beam="1">  1       21 0.45448420E-02 0.12501535E+03</pdfrwt>
<pdfrwt beam="2">  1       21 0.20347975E-01 0.12501535E+03</pdfrwt>
<totfact> 0.69272780E+06</totfact>
</mgrwt>
</event>
<event>
 9    1  0.4458519E-002  0.1249990E+03  0.7818608E-02  0.1235071E+00
         21   -1    0    0  503  502  0.00000000000E+00  0.00000000000E+00  0.75955050435E+03  0.75955050435E+03  0.00000000000E+00 0.  1.
         21   -1    0    0  502  503 -0.00000000000E+00 -0.00000000000E+00 -0.51427657189E+01  0.51427657189E+01  0.00000000000E+00 0.  1.
         25    2    1    2    0    0 -0.17763568394E-14  0.00000000000E+00  0.75440773864E+03  0.76469327007E+03  0.12499904473E+03 0.  0.
    9000006    2    3    3    0    0  0.49938237789E+01  0.12126088572E+01  0.27487057006E+03  0.28138958560E+03  0.59998832520E+02 0.  0.
    9000007    2    3    3    0    0 -0.49938237789E+01 -0.12126088572E+01  0.47953716857E+03  0.48330368447E+03  0.60001222340E+02 0.  0.
          5    1    4    4  501    0  0.18528814196E+02  0.33617529433E+01  0.25965586386E+03  0.26038025266E+03  0.47000000000E+01 0.  1.
         -5    1    4    4    0  501 -0.13534990418E+02 -0.21491440861E+01  0.15214706200E+02  0.21009332942E+02  0.47000000000E+01 0.  1.
         12    1    5    5    0    0  0.40821195914E+01 -0.66248224907E+01  0.46630462030E+03  0.46636954327E+03  0.00000000000E+00 0. -1.
        -12    1    5    5    0    0 -0.90759433702E+01  0.54122136335E+01  0.13232548273E+02  0.16934141202E+02  0.00000000000E+00 0. -1.
<mgrwt>
<rscale>  0 0.12499904E+03</rscale>
<asrwt>0</asrwt>
<pdfrwt beam="1">  1       21 0.11685383E+00 0.12499904E+03</pdfrwt>
<pdfrwt beam="2">  1       21 0.79119533E-03 0.12499904E+03</pdfrwt>
<totfact> 0.30559432E+06</totfact>
</mgrwt>
</event>
<event>
 9    1  0.4458519E-002  0.1250122E+03  0.7818608E-02  0.1235050E+00
         21   -1    0    0  503  502  0.00000000000E+00  0.00000000000E+00  0.79582781519E+02  0.79582781519E+02  0.00000000000E+00 0.  1.
         21   -1    0    0  502  503 -0.00000000000E+00 -0.00000000000E+00 -0.49093724947E+02  0.49093724947E+02  0.00000000000E+00 0.  1.
         25    2    1    2    0    0  0.35527136788E-14 -0.35527136788E-14  0.30489056572E+02  0.12867650647E+03  0.12501224238E+03 0.  0.
    9000006    2    3    3    0    0  0.99830784922E+01 -0.14409154461E+02  0.14553319696E+02  0.64180464625E+02  0.60000394472E+02 0.  0.
    9000007    2    3    3    0    0 -0.99830784922E+01  0.14409154461E+02  0.15935736875E+02  0.64496041841E+02  0.59987549666E+02 0.  0.
          5    1    4    4  501    0  0.28063579544E+02  0.75053765518E+01 -0.43303369848E+01  0.29744528781E+02  0.47000000000E+01 0.  1.
         -5    1    4    4    0  501 -0.18080501052E+02 -0.21914531013E+02  0.18883656681E+02  0.34435935844E+02  0.47000000000E+01 0.  1.
         12    1    5    5    0    0  0.19656458967E+02  0.16239495054E+02  0.22588757742E+02  0.34063903991E+02  0.00000000000E+00 0.  1.
        -12    1    5    5    0    0 -0.29639537460E+02 -0.18303405933E+01 -0.66530208666E+01  0.30432137851E+02  0.00000000000E+00 0.  1.
<mgrwt>
<rscale>  0 0.12501224E+03</rscale>
<asrwt>0</asrwt>
<pdfrwt beam="1">  1       21 0.12243505E-01 0.12501224E+03</pdfrwt>
<pdfrwt beam="2">  1       21 0.75528807E-02 0.12501224E+03</pdfrwt>
<totfact> 0.73519382E+06</totfact>
</mgrwt>
</event>
<event>
 9    1  0.4458519E-002  0.1249984E+03  0.7818608E-02  0.1235072E+00
         21   -1    0    0  503  502  0.00000000000E+00  0.00000000000E+00  0.44372036436E+03  0.44372036436E+03  0.00000000000E+00 0.  1.
         21   -1    0    0  502  503 -0.00000000000E+00 -0.00000000000E+00 -0.88031838596E+01  0.88031838596E+01  0.00000000000E+00 0.  1.
         25    2    1    2    0    0 -0.17763568394E-14  0.00000000000E+00  0.43491718050E+03  0.45252354821E+03  0.12499843119E+03 0.  0.
    9000006    2    3    3    0    0 -0.35891633116E+01 -0.15845710841E+02  0.24096852173E+03  0.24885698161E+03  0.60000001552E+02 0.  0.
    9000007    2    3    3    0    0  0.35891633116E+01  0.15845710841E+02  0.19394865876E+03  0.20366656660E+03  0.60000162250E+02 0.  0.
          5    1    4    4  501    0 -0.16605545969E+02 -0.55451607839E+01  0.22374949693E+03  0.22448256133E+03  0.47000000000E+01 0.  1.
         -5    1    4    4    0  501  0.13016382657E+02 -0.10300550057E+02  0.17219024802E+02  0.24374420282E+02  0.47000000000E+01 0.  1.
         12    1    5    5    0    0  0.16292314765E+02 -0.18724221553E+02  0.65608500706E+02  0.70146356699E+02  0.00000000000E+00 0. -1.
        -12    1    5    5    0    0 -0.12703151454E+02  0.34569932394E+02  0.12834015806E+03  0.13352020990E+03  0.00000000000E+00 0. -1.
<mgrwt>
<rscale>  0 0.12499843E+03</rscale>
<asrwt>0</asrwt>
<pdfrwt beam="1">  1       21 0.68264654E-01 0.12499843E+03</pdfrwt>
<pdfrwt beam="2">  1       21 0.13543363E-02 0.12499843E+03</pdfrwt>
<totfact> 0.44743406E+06</totfact>
</mgrwt>
</event>
<event>
 9    1  0.4458519E-002  0.1249890E+03  0.7818608E-02  0.1235086E+00
         21   -1    0    0  503  502  0.00000000000E+00  0.00000000000E+00  0.34327691104E+03  0.34327691104E+03  0.00000000000E+00 0.  1.
         21   -1    0    0  502  503 -0.00000000000E+00 -0.00000000000E+00 -0.11377302612E+02  0.11377302612E+02  0.00000000000E+00 0.  1.
         25    2    1    2    0    0  0.17763568394E-14  0.17763568394E-14  0.33189960843E+03  0.35465421365E+03  0.12498904427E+03 0.  0.
    9000006    2    3    3    0    0  0.12645481458E+02 -0.11094879123E+02  0.17939251131E+03  0.18990794712E+03  0.60002922594E+02 0.  0.
    9000007    2    3    3    0    0 -0.12645481458E+02  0.11094879123E+02  0.15250709711E+03  0.16474626653E+03  0.59999276014E+02 0.  0.
          5    1    4    4  501    0  0.32627561544E+02 -0.21403589204E+02  0.10980005404E+03  0.11662252471E+03  0.47000000000E+01 0.  1.
         -5    1    4    4    0  501 -0.19982080086E+02  0.10308710081E+02  0.69592457272E+02  0.73285422406E+02  0.47000000000E+01 0.  1.
         12    1    5    5    0    0  0.52126271625E+01 -0.22716210466E+02  0.45682379228E+02  0.51284280943E+02  0.00000000000E+00 0. -1.
        -12    1    5    5    0    0 -0.17858108620E+02  0.33811089589E+02  0.10682471789E+03  0.11346198559E+03  0.00000000000E+00 0. -1.
<mgrwt>
<rscale>  0 0.12498904E+03</rscale>
<asrwt>0</asrwt>
<pdfrwt beam="1">  1       21 0.52811825E-01 0.12498904E+03</pdfrwt>
<pdfrwt beam="2">  1       21 0.17503545E-02 0.12498904E+03</pdfrwt>
<totfact> 0.51210585E+06</totfact>
</mgrwt>
</event>
<event>
 9    1  0.4458519E-002  0.1250007E+03  0.7818608E-02  0.1235068E+00
         21   -1    0    0  503  502  0.00000000000E+00  0.00000000000E+00  0.17355373443E+02  0.17355373443E+02  0.00000000000E+00 0. -1.
         21   -1    0    0  502  503 -0.00000000000E+00 -0.00000000000E+00 -0.22507679450E+03  0.22507679450E+03  0.00000000000E+00 0. -1.
         25    2    1    2    0    0  0.00000000000E+00  0.00000000000E+00 -0.20772142106E+03  0.24243216794E+03  0.12500066915E+03 0.  0.
    9000006    2    3    3    0    0 -0.14950521704E+02  0.83895559798E+01 -0.96998472875E+02  0.11533585965E+03  0.59997950242E+02 0.  0.
    9000007    2    3    3    0    0  0.14950521704E+02 -0.83895559798E+01 -0.11072294818E+03  0.12709630829E+03  0.59999979816E+02 0.  0.
          5    1    4    4  501    0 -0.11783085941E+01 -0.12983687320E+02  0.10856023785E+01  0.13900830194E+02  0.47000000000E+01 0. -1.
         -5    1    4    4    0  501 -0.13772213110E+02  0.21373243300E+02 -0.98084075254E+02  0.10143502946E+03  0.47000000000E+01 0. -1.
         12    1    5    5    0    0  0.14420112137E+02 -0.33901223689E+02 -0.67728336707E+02  0.77099677008E+02  0.00000000000E+00 0.  1.
        -12    1    5    5    0    0  0.53040956659E+00  0.25511667709E+02 -0.42994611476E+02  0.49996631282E+02  0.00000000000E+00 0.  1.
<mgrwt>
<rscale>  0 0.12500067E+03</rscale>
<asrwt>0</asrwt>
<pdfrwt beam="1">  1       21 0.26700576E-02 0.12500067E+03</pdfrwt>
<pdfrwt beam="2">  1       21 0.34627197E-01 0.12500067E+03</pdfrwt>
<totfact> 0.60597076E+06</totfact>
</mgrwt>
</event>
<event>
 9    1  0.4458519E-002  0.1250010E+03  0.7818608E-02  0.1235068E+00
         21   -1    0    0  503  502  0.00000000000E+00  0.00000000000E+00  0.22479913311E+01  0.22479913311E+01  0.00000000000E+00 0. -1.
         21   -1    0    0  502  503 -0.00000000000E+00 -0.00000000000E+00 -0.17376888647E+04  0.17376888647E+04  0.00000000000E+00 0. -1.
         25    2    1    2    0    0 -0.17763568394E-14  0.17763568394E-14 -0.17354408734E+04  0.17399368560E+04  0.12500095206E+03 0.  0.
    9000006    2    3    3    0    0  0.10347058713E+02 -0.14055956928E+02 -0.85363657473E+03  0.85592060113E+03  0.60000351359E+02 0.  0.
    9000007    2    3    3    0    0 -0.10347058713E+02  0.14055956928E+02 -0.88180429863E+03  0.88401625490E+03  0.60010718142E+02 0.  0.
          5    1    4    4  501    0 -0.21399300372E+02 -0.12863967723E+02 -0.55087258418E+03  0.55145816317E+03  0.47000000000E+01 0. -1.
         -5    1    4    4    0  501  0.31746359085E+02 -0.11919892054E+01 -0.30276399055E+03  0.30446243796E+03  0.47000000000E+01 0. -1.
         12    1    5    5    0    0 -0.70049631674E+01  0.15310157822E+02 -0.63201037884E+02  0.65405211040E+02  0.00000000000E+00 0. -1.
        -12    1    5    5    0    0 -0.33420955460E+01 -0.12542008942E+01 -0.81860326075E+03  0.81861104386E+03  0.00000000000E+00 0. -1.
<mgrwt>
<rscale>  0 0.12500095E+03</rscale>
<asrwt>0</asrwt>
<pdfrwt beam="1">  1       21 0.34584321E-03 0.12500095E+03</pdfrwt>
<pdfrwt beam="2">  1       21 0.26733799E+00 0.12500095E+03</pdfrwt>
<totfact> 0.10778470E+06</totfact>
</mgrwt>
</event>
<event>
 9    1  0.4458519E-002  0.1249995E+03  0.7818608E-02  0.1235070E+00
         21   -1    0    0  503  502  0.00000000000E+00  0.00000000000E+00  0.27424697966E+01  0.27424697966E+01  0.00000000000E+00 0. -1.
         21   -1    0    0  502  503 -0.00000000000E+00 -0.00000000000E+00 -0.14243434218E+04  0.14243434218E+04  0.00000000000E+00 0. -1.
         25    2    1    2    0    0  0.26645352591E-14  0.35527136788E-14 -0.14216009520E+04  0.14270858916E+04  0.12499950103E+03 0.  0.
    9000006    2    3    3    0    0 -0.17931180777E+01 -0.16772719651E+02 -0.76392093497E+03  0.76645925035E+03  0.60000401338E+02 0.  0.
    9000007    2    3    3    0    0  0.17931180777E+01  0.16772719651E+02 -0.65768001703E+03  0.66062664125E+03  0.60000124385E+02 0.  0.
          5    1    4    4  501    0 -0.36714867203E+01 -0.19076473350E+02 -0.75826140728E+03  0.75852478102E+03  0.47000000000E+01 0. -1.
         -5    1    4    4    0  501  0.18783686426E+01  0.23037536988E+01 -0.56595276941E+01  0.79344693321E+01  0.47000000000E+01 0. -1.
         12    1    5    5    0    0 -0.23965614561E+02 -0.88305188715E+01 -0.23265332000E+03  0.23405105437E+03  0.00000000000E+00 0.  1.
        -12    1    5    5    0    0  0.25758732639E+02  0.25603238522E+02 -0.42502669703E+03  0.42657558688E+03  0.00000000000E+00 0.  1.
<mgrwt>
<rscale>  0 0.12499950E+03</rscale>
<asrwt>0</asrwt>
<pdfrwt beam="1">  1       21 0.42191761E-03 0.12499950E+03</pdfrwt>
<pdfrwt beam="2">  1       21 0.21913018E+00 0.12499950E+03</pdfrwt>
<totfact> 0.15109919E+06</totfact>
</mgrwt>
</event>
<event>
 9    1  0.4458519E-002  0.1249984E+03  0.7818608E-02  0.1235072E+00
         21   -1    0    0  503  502  0.00000000000E+00  0.00000000000E+00  0.15589461511E+02  0.15589461511E+02  0.00000000000E+00 0. -1.
         21   -1    0    0  502  503 -0.00000000000E+00 -0.00000000000E+00 -0.25056361864E+03  0.25056361864E+03  0.00000000000E+00 0. -1.
         25    2    1    2    0    0 -0.17763568394E-14 -0.17763568394E-14 -0.23497415713E+03  0.26615308016E+03  0.12499843021E+03 0.  0.
    9000006    2    3    3    0    0  0.92771053240E+01 -0.75911567047E+01 -0.14461492380E+03  0.15702570874E+03  0.59999222294E+02 0.  0.
    9000007    2    3    3    0    0 -0.92771053240E+01  0.75911567047E+01 -0.90359233329E+02  0.10912737141E+03  0.60002514951E+02 0.  0.
          5    1    4    4  501    0  0.82033173368E+01  0.24520528261E+02 -0.87090436347E+02  0.90969142156E+02  0.47000000000E+01 0. -1.
         -5    1    4    4    0  501  0.10737879872E+01 -0.32111684966E+02 -0.57524487457E+02  0.66056566586E+02  0.47000000000E+01 0. -1.
         12    1    5    5    0    0  0.25209408501E+02  0.32935547994E+01 -0.48168291575E+02  0.54466008605E+02  0.00000000000E+00 0.  1.
        -12    1    5    5    0    0 -0.34486513825E+02  0.42976019053E+01 -0.42190941754E+02  0.54661362808E+02  0.00000000000E+00 0.  1.
<mgrwt>
<rscale>  0 0.12499843E+03</rscale>
<asrwt>0</asrwt>
<pdfrwt beam="1">  1       21 0.23983787E-02 0.12499843E+03</pdfrwt>
<pdfrwt beam="2">  1       21 0.38548249E-01 0.12499843E+03</pdfrwt>
<totfact> 0.58392167E+06</totfact>
</mgrwt>
</event>
<event>
 9    1  0.4458519E-002  0.1250020E+03  0.7818608E-02  0.1235066E+00
         21   -1    0    0  503  502  0.00000000000E+00  0.00000000000E+00  0.33661154647E+03  0.33661154647E+03  0.00000000000E+00 0. -1.
         21   -1    0    0  502  503 -0.00000000000E+00 -0.00000000000E+00 -0.11604986021E+02  0.11604986021E+02  0.00000000000E+00 0. -1.
         25    2    1    2    0    0 -0.35527136788E-14  0.35527136788E-14  0.32500656045E+03  0.34821653249E+03  0.12500195664E+03 0.  0.
    9000006    2    3    3    0    0 -0.28738478971E+01 -0.14107838086E+02  0.13488969570E+03  0.14833717196E+03  0.60011636207E+02 0.  0.
    9000007    2    3    3    0    0  0.28738478971E+01  0.14107838086E+02  0.19011686474E+03  0.19987936053E+03  0.60000386743E+02 0.  0.
          5    1    4    4  501    0  0.10003400955E+02 -0.33810098004E+02  0.98675912839E+02  0.10489145119E+03  0.47000000000E+01 0. -1.
         -5    1    4    4    0  501 -0.12877248852E+02  0.19702259917E+02  0.36213782863E+02  0.43445720768E+02  0.47000000000E+01 0. -1.
         12    1    5    5    0    0  0.30038007385E+02  0.76073517474E+01  0.69897001317E+02  0.76457468447E+02  0.00000000000E+00 0. -1.
        -12    1    5    5    0    0 -0.27164159488E+02  0.65004863390E+01  0.12021986343E+03  0.12342189209E+03  0.00000000000E+00 0. -1.
<mgrwt>
<rscale>  0 0.12500196E+03</rscale>
<asrwt>0</asrwt>
<pdfrwt beam="1">  1       21 0.51786384E-01 0.12500196E+03</pdfrwt>
<pdfrwt beam="2">  1       21 0.17853827E-02 0.12500196E+03</pdfrwt>
<totfact> 0.51667886E+06</totfact>
</mgrwt>
</event>
<event>
 9    1  0.4458519E-002  0.1249935E+03  0.7818608E-02  0.1235079E+00
         21   -1    0    0  503  502  0.00000000000E+00  0.00000000000E+00  0.29328722630E+03  0.29328722630E+03  0.00000000000E+00 0.  1.
         21   -1    0    0  502  503 -0.00000000000E+00 -0.00000000000E+00 -0.13317471736E+02  0.13317471736E+02  0.00000000000E+00 0.  1.
         25    2    1    2    0    0  0.00000000000E+00  0.35527136788E-14  0.27996975456E+03  0.30660469803E+03  0.12499350938E+03 0.  0.
    9000006    2    3    3    0    0 -0.17041434511E+02  0.18185143763E+01  0.14851794339E+03  0.16109428614E+03  0.60000600263E+02 0.  0.
    9000007    2    3    3    0    0  0.17041434511E+02 -0.18185143763E+01  0.13145181117E+03  0.14551041190E+03  0.59999865215E+02 0.  0.
          5    1    4    4  501    0 -0.14704126846E+02  0.28289639896E+02  0.54857445851E+02  0.63623458230E+02  0.47000000000E+01 0.  1.
         -5    1    4    4    0  501 -0.23373076644E+01 -0.26471125520E+02  0.93660497538E+02  0.97470827905E+02  0.47000000000E+01 0.  1.
         12    1    5    5    0    0 -0.21493605866E+01 -0.27557662652E+02  0.40290936590E+02  0.48861069299E+02  0.00000000000E+00 0.  1.
        -12    1    5    5    0    0  0.19190795097E+02  0.25739148275E+02  0.91160874583E+02  0.96649342600E+02  0.00000000000E+00 0.  1.
<mgrwt>
<rscale>  0 0.12499351E+03</rscale>
<asrwt>0</asrwt>
<pdfrwt beam="1">  1       21 0.45121107E-01 0.12499351E+03</pdfrwt>
<pdfrwt beam="2">  1       21 0.20488420E-02 0.12499351E+03</pdfrwt>
<totfact> 0.54920680E+06</totfact>
</mgrwt>
</event>
<event>
 9    1  0.4458519E-002  0.1249992E+03  0.7818608E-02  0.1235071E+00
         21   -1    0    0  503  502  0.00000000000E+00  0.00000000000E+00  0.11477581058E+02  0.11477581058E+02  0.00000000000E+00 0.  1.
         21   -1    0    0  502  503 -0.00000000000E+00 -0.00000000000E+00 -0.34033299298E+03  0.34033299298E+03  0.00000000000E+00 0.  1.
         25    2    1    2    0    0 -0.17763568394E-14 -0.17763568394E-14 -0.32885541193E+03  0.35181057404E+03  0.12499919222E+03 0.  0.
    9000006    2    3    3    0    0  0.99348229552E+01  0.14408090667E+02 -0.16447926286E+03  0.17595350392E+03  0.59999282066E+02 0.  0.
    9000007    2    3    3    0    0 -0.99348229552E+01 -0.14408090667E+02 -0.16437614907E+03  0.17585707012E+03  0.59999141203E+02 0.  0.
          5    1    4    4  501    0 -0.11434957068E+02  0.31804898691E+02 -0.80138105238E+02  0.87100606973E+02  0.47000000000E+01 0. -1.
         -5    1    4    4    0  501  0.21369780023E+02 -0.17396808023E+02 -0.84341157620E+02  0.88852896950E+02  0.47000000000E+01 0. -1.
         12    1    5    5    0    0  0.16233273843E+02 -0.21520934579E+02 -0.37915066670E+02  0.46521200387E+02  0.00000000000E+00 0. -1.
        -12    1    5    5    0    0 -0.26168096798E+02  0.71128439111E+01 -0.12646108240E+03  0.12933586973E+03  0.00000000000E+00 0. -1.
<mgrwt>
<rscale>  0 0.12499919E+03</rscale>
<asrwt>0</asrwt>
<pdfrwt beam="1">  1       21 0.17657816E-02 0.12499919E+03</pdfrwt>
<pdfrwt beam="2">  1       21 0.52358925E-01 0.12499919E+03</pdfrwt>
<totfact> 0.51406032E+06</totfact>
</mgrwt>
</event>
<event>
 9    1  0.4458519E-002  0.1249998E+03  0.7818608E-02  0.1235070E+00
         21   -1    0    0  503  502  0.00000000000E+00  0.00000000000E+00  0.78327664888E+03  0.78327664888E+03  0.00000000000E+00 0.  1.
         21   -1    0    0  502  503 -0.00000000000E+00 -0.00000000000E+00 -0.49870461728E+01  0.49870461728E+01  0.00000000000E+00 0.  1.
         25    2    1    2    0    0  0.88817841970E-15  0.00000000000E+00  0.77828960271E+03  0.78826369506E+03  0.12499978902E+03 0.  0.
    9000006    2    3    3    0    0  0.12445455185E+01  0.81846299125E+01  0.29193884795E+03  0.29815582283E+03  0.60000555712E+02 0.  0.
    9000007    2    3    3    0    0 -0.12445455185E+01 -0.81846299125E+01  0.48635075476E+03  0.49010787223E+03  0.60001105822E+02 0.  0.
          5    1    4    4  501    0  0.26685783455E+02  0.93910227314E+01  0.87422104435E+02  0.92005634015E+02  0.47000000000E+01 0. -1.
         -5    1    4    4    0  501 -0.25441237937E+02 -0.12063928188E+01  0.20451674351E+03  0.20615018882E+03  0.47000000000E+01 0. -1.
         12    1    5    5    0    0  0.17418132351E+00 -0.30450994664E+02  0.39089320617E+03  0.39207753320E+03  0.00000000000E+00 0.  1.
        -12    1    5    5    0    0 -0.14187268420E+01  0.22266364752E+02  0.95457548593E+02  0.98030339021E+02  0.00000000000E+00 0.  1.
<mgrwt>
<rscale>  0 0.12499979E+03</rscale>
<asrwt>0</asrwt>
<pdfrwt beam="1">  1       21 0.12050400E+00 0.12499979E+03</pdfrwt>
<pdfrwt beam="2">  1       21 0.76723850E-03 0.12499979E+03</pdfrwt>
<totfact> 0.29755554E+06</totfact>
</mgrwt>
</event>
<event>
 8    1  0.4458519E-002  0.1247976E+03  0.7818608E-02  0.1235386E+00
         21   -1    0    0  503  502  0.00000000000E+00  0.00000000000E+00  0.20201582666E+02  0.20201582666E+02  0.00000000000E+00 0. -1.
         21   -1    0    0  502  503 -0.00000000000E+00 -0.00000000000E+00 -0.19273785360E+03  0.19273785360E+03  0.00000000000E+00 0. -1.
    9000006    2    1    2    0    0  0.10380971782E+02 -0.74975842657E+01 -0.10568893412E+03  0.12220510333E+03  0.59999651171E+02 0.  0.
    9000007    2    1    2    0    0 -0.10380971782E+02  0.74975842657E+01 -0.66847336816E+02  0.90734332933E+02  0.60001453219E+02 0.  0.
          5    1    3    3  501    0  0.11411565025E+02  0.24910049757E+02 -0.58356112937E+02  0.64639464047E+02  0.47000000000E+01 0. -1.
         -5    1    3    3    0  501 -0.10305932436E+01 -0.32407634023E+02 -0.47332821180E+02  0.57565639285E+02  0.47000000000E+01 0. -1.
         12    1    4    4    0    0 -0.31429697042E+02 -0.98659071250E+01 -0.45058035332E+02  0.55815665611E+02  0.00000000000E+00 0. -1.
        -12    1    4    4    0    0  0.21048725261E+02  0.17363491391E+02 -0.21789301485E+02  0.34918667322E+02  0.00000000000E+00 0. -1.
<mgrwt>
<rscale>  0 0.12479759E+03</rscale>
<asrwt>0</asrwt>
<pdfrwt beam="1">  1       21 0.31079358E-02 0.12479759E+03</pdfrwt>
<pdfrwt beam="2">  1       21 0.29651977E-01 0.12479759E+03</pdfrwt>
<totfact> 0.63877960E+06</totfact>
</mgrwt>
</event>
<event>
 9    1  0.4458519E-002  0.1249405E+03  0.7818608E-02  0.1235162E+00
         21   -1    0    0  503  502  0.00000000000E+00  0.00000000000E+00  0.11345920298E+02  0.11345920298E+02  0.00000000000E+00 0.  1.
         21   -1    0    0  502  503 -0.00000000000E+00 -0.00000000000E+00 -0.34395918915E+03  0.34395918915E+03  0.00000000000E+00 0.  1.
         25    2    1    2    0    0  0.35527136788E-14  0.00000000000E+00 -0.33261326885E+03  0.35530510945E+03  0.12494052258E+03 0.  0.
    9000006    2    3    3    0    0  0.96440850952E+01  0.10612606377E+02 -0.19429595940E+03  0.20385413551E+03  0.59999607787E+02 0.  0.
    9000007    2    3    3    0    0 -0.96440850952E+01 -0.10612606377E+02 -0.13831730945E+03  0.15145097394E+03  0.60000696837E+02 0.  0.
          5    1    4    4  501    0 -0.24329073198E+02  0.75514562749E+00 -0.60524625154E+02  0.65404849191E+02  0.47000000000E+01 0. -1.
         -5    1    4    4    0  501  0.33973158293E+02  0.98574607491E+01 -0.13377133424E+03  0.13844928632E+03  0.47000000000E+01 0. -1.
         12    1    5    5    0    0  0.13904338536E+02  0.16035492956E+02 -0.83141992466E+02  0.85808266360E+02  0.00000000000E+00 0.  1.
        -12    1    5    5    0    0 -0.23548423631E+02 -0.26648099333E+02 -0.55175316987E+02  0.65642707578E+02  0.00000000000E+00 0.  1.
<mgrwt>
<rscale>  0 0.12494052E+03</rscale>
<asrwt>0</asrwt>
<pdfrwt beam="1">  1       21 0.17455263E-02 0.12494052E+03</pdfrwt>
<pdfrwt beam="2">  1       21 0.52916795E-01 0.12494052E+03</pdfrwt>
<totfact> 0.51225270E+06</totfact>
</mgrwt>
</event>
<event>
 9    1  0.4458519E-002  0.1250003E+03  0.7818608E-02  0.1235069E+00
         21   -1    0    0  503  502  0.00000000000E+00  0.00000000000E+00  0.18671115361E+03  0.18671115361E+03  0.00000000000E+00 0. -1.
         21   -1    0    0  502  503 -0.00000000000E+00 -0.00000000000E+00 -0.20921451171E+02  0.20921451171E+02  0.00000000000E+00 0. -1.
         25    2    1    2    0    0  0.00000000000E+00  0.00000000000E+00  0.16578970244E+03  0.20763260478E+03  0.12500029253E+03 0.  0.
    9000006    2    3    3    0    0 -0.62625435618E+01  0.75278288282E+01  0.58799385495E+02  0.84576415947E+02  0.59999289505E+02 0.  0.
    9000007    2    3    3    0    0  0.62625435618E+01 -0.75278288282E+01  0.10699031694E+03  0.12305618883E+03  0.60000083597E+02 0.  0.
          5    1    4    4  501    0 -0.71955463326E+01 -0.25635274562E+02  0.30077743885E+02  0.40443835947E+02  0.47000000000E+01 0. -1.
         -5    1    4    4    0  501  0.93300277081E+00  0.33163103391E+02  0.28721641609E+02  0.44132579999E+02  0.47000000000E+01 0. -1.
         12    1    5    5    0    0  0.49878345349E+01  0.97099618781E+01 -0.33122133762E+01  0.11407568123E+02  0.00000000000E+00 0.  1.
        -12    1    5    5    0    0  0.12747090269E+01 -0.17237790706E+02  0.11030253032E+03  0.11164862071E+03  0.00000000000E+00 0.  1.
<mgrwt>
<rscale>  0 0.12500029E+03</rscale>
<asrwt>0</asrwt>
<pdfrwt beam="1">  1       21 0.28724792E-01 0.12500029E+03</pdfrwt>
<pdfrwt beam="2">  1       21 0.32186849E-02 0.12500029E+03</pdfrwt>
<totfact> 0.64109003E+06</totfact>
</mgrwt>
</event>
<event>
 9    1  0.4458519E-002  0.1249992E+03  0.7818608E-02  0.1235071E+00
         21   -1    0    0  503  502  0.00000000000E+00  0.00000000000E+00  0.29159024562E+02  0.29159024562E+02  0.00000000000E+00 0. -1.
         21   -1    0    0  502  503 -0.00000000000E+00 -0.00000000000E+00 -0.13396193717E+03  0.13396193717E+03  0.00000000000E+00 0. -1.
         25    2    1    2    0    0  0.00000000000E+00  0.00000000000E+00 -0.10480291261E+03  0.16312096173E+03  0.12499919066E+03 0.  0.
    9000006    2    3    3    0    0  0.25044030329E+01 -0.14983805808E+02 -0.41042494362E+02  0.74265118282E+02  0.60000291490E+02 0.  0.
    9000007    2    3    3    0    0 -0.25044030329E+01  0.14983805808E+02 -0.63760418244E+02  0.88855843448E+02  0.59993195524E+02 0.  0.
          5    1    4    4  501    0  0.27574910097E+02 -0.79137881422E+00 -0.59320168483E+01  0.28605607338E+02  0.47000000000E+01 0. -1.
         -5    1    4    4    0  501 -0.25070507064E+02 -0.14192426994E+02 -0.35110477513E+02  0.45659510944E+02  0.47000000000E+01 0. -1.
         12    1    5    5    0    0  0.27504472732E+02  0.31786055019E+01 -0.18565631601E+02  0.33335900017E+02  0.00000000000E+00 0.  1.
        -12    1    5    5    0    0 -0.30008875765E+02  0.11805200306E+02 -0.45194786642E+02  0.55519943431E+02  0.00000000000E+00 0.  1.
<mgrwt>
<rscale>  0 0.12499919E+03</rscale>
<asrwt>0</asrwt>
<pdfrwt beam="1">  1       21 0.44860039E-02 0.12499919E+03</pdfrwt>
<pdfrwt beam="2">  1       21 0.20609528E-01 0.12499919E+03</pdfrwt>
<totfact> 0.69141567E+06</totfact>
</mgrwt>
</event>
<event>
 9    1  0.4458519E-002  0.1250015E+03  0.7818608E-02  0.1235067E+00
         21   -1    0    0  503  502  0.00000000000E+00  0.00000000000E+00  0.31435071851E+03  0.31435071851E+03  0.00000000000E+00 0.  1.
         21   -1    0    0  502  503 -0.00000000000E+00 -0.00000000000E+00 -0.12426695431E+02  0.12426695431E+02  0.00000000000E+00 0.  1.
         25    2    1    2    0    0  0.17763568394E-14  0.11102230246E-14  0.30192402308E+03  0.32677741394E+03  0.12500145019E+03 0.  0.
    9000006    2    3    3    0    0 -0.94744356297E+01  0.10667258341E+01  0.11260090751E+03  0.12794536823E+03  0.60001250367E+02 0.  0.
    9000007    2    3    3    0    0  0.94744356297E+01 -0.10667258341E+01  0.18932311557E+03  0.19883204571E+03  0.60000312311E+02 0.  0.
          5    1    4    4  501    0  0.15764940762E+02  0.21910393615E+02  0.57244344434E+02  0.63463404220E+02  0.47000000000E+01 0. -1.
         -5    1    4    4    0  501 -0.25239376392E+02 -0.20843667781E+02  0.55356563073E+02  0.64481964009E+02  0.47000000000E+01 0. -1.
         12    1    5    5    0    0  0.15522931710E+02 -0.84087054799E+00  0.19170004776E+03  0.19232934457E+03  0.00000000000E+00 0. -1.
        -12    1    5    5    0    0 -0.60484960798E+01 -0.22585528612E+00 -0.23769321909E+01  0.65027011371E+01  0.00000000000E+00 0. -1.
<mgrwt>
<rscale>  0 0.12500145E+03</rscale>
<asrwt>0</asrwt>
<pdfrwt beam="1">  1       21 0.48361643E-01 0.12500145E+03</pdfrwt>
<pdfrwt beam="2">  1       21 0.19117995E-02 0.12500145E+03</pdfrwt>
<totfact> 0.53298664E+06</totfact>
</mgrwt>
</event>
<event>
 9    1  0.4458519E-002  0.1249984E+03  0.7818608E-02  0.1235072E+00
         21   -1    0    0  503  502  0.00000000000E+00  0.00000000000E+00  0.12523587016E+03  0.12523587016E+03  0.00000000000E+00 0.  1.
         21   -1    0    0  502  503 -0.00000000000E+00 -0.00000000000E+00 -0.31190333075E+02  0.31190333075E+02  0.00000000000E+00 0.  1.
         25    2    1    2    0    0  0.17763568394E-14  0.26645352591E-14  0.94045537085E+02  0.15642620323E+03  0.12499837604E+03 0.  0.
    9000006    2    3    3    0    0  0.17345655710E+01 -0.35503856668E+01  0.68352747552E+02  0.91037138280E+02  0.60000404100E+02 0.  0.
    9000007    2    3    3    0    0 -0.17345655710E+01  0.35503856668E+01  0.25692789533E+02  0.65389064954E+02  0.59999970213E+02 0.  0.
          5    1    4    4  501    0  0.28316752809E+02 -0.36911328886E+00  0.18192848828E+02  0.33985945371E+02  0.47000000000E+01 0.  1.
         -5    1    4    4    0  501 -0.26582187238E+02 -0.31812723780E+01  0.50159898725E+02  0.57051192909E+02  0.47000000000E+01 0.  1.
         12    1    5    5    0    0 -0.47227173692E+01 -0.21968039159E+02 -0.72510066345E+01  0.23610927577E+02  0.00000000000E+00 0. -1.
        -12    1    5    5    0    0  0.29881517981E+01  0.25518424826E+02  0.32943796167E+02  0.41778137377E+02  0.00000000000E+00 0. -1.
<mgrwt>
<rscale>  0 0.12499838E+03</rscale>
<asrwt>0</asrwt>
<pdfrwt beam="1">  1       21 0.19267057E-01 0.12499838E+03</pdfrwt>
<pdfrwt beam="2">  1       21 0.47985128E-02 0.12499838E+03</pdfrwt>
<totfact> 0.69961722E+06</totfact>
</mgrwt>
</event>
<event>
 9    1  0.4458519E-002  0.1249988E+03  0.7818608E-02  0.1235071E+00
         21   -1    0    0  503  502  0.00000000000E+00  0.00000000000E+00  0.27054155244E+03  0.27054155244E+03  0.00000000000E+00 0. -1.
         21   -1    0    0  502  503 -0.00000000000E+00 -0.00000000000E+00 -0.14438346221E+02  0.14438346221E+02  0.00000000000E+00 0. -1.
         25    2    1    2    0    0  0.00000000000E+00  0.71054273576E-14  0.25610320622E+03  0.28497989866E+03  0.12499876161E+03 0.  0.
    9000006    2    3    3    0    0 -0.36775674672E+00 -0.16399623225E+02  0.11419418470E+03  0.13003619903E+03  0.60000152932E+02 0.  0.
    9000007    2    3    3    0    0  0.36775674672E+00  0.16399623225E+02  0.14190902152E+03  0.15494369963E+03  0.60002473114E+02 0.  0.
          5    1    4    4  501    0 -0.57348874921E+01  0.57693102580E+01 -0.35258250854E+01  0.10034705672E+02  0.47000000000E+01 0.  1.
         -5    1    4    4    0  501  0.53671307454E+01 -0.22168933483E+02  0.11772000978E+03  0.12000149335E+03  0.47000000000E+01 0.  1.
         12    1    5    5    0    0 -0.38628282744E+01  0.39001772235E+02  0.91177998307E+02  0.99244581993E+02  0.00000000000E+00 0.  1.
        -12    1    5    5    0    0  0.42305850211E+01 -0.22602149010E+02  0.50731023212E+02  0.55699117638E+02  0.00000000000E+00 0.  1.
<mgrwt>
<rscale>  0 0.12499876E+03</rscale>
<asrwt>0</asrwt>
<pdfrwt beam="1">  1       21 0.41621773E-01 0.12499876E+03</pdfrwt>
<pdfrwt beam="2">  1       21 0.22212842E-02 0.12499876E+03</pdfrwt>
<totfact> 0.56729737E+06</totfact>
</mgrwt>
</event>
<event>
 9    1  0.4458519E-002  0.1250001E+03  0.7818608E-02  0.1235069E+00
         21   -1    0    0  503  502  0.00000000000E+00  0.00000000000E+00  0.17353272386E+02  0.17353272386E+02  0.00000000000E+00 0.  1.
         21   -1    0    0  502  503 -0.00000000000E+00 -0.00000000000E+00 -0.22510216720E+03  0.22510216720E+03  0.00000000000E+00 0.  1.
         25    2    1    2    0    0  0.00000000000E+00  0.35527136788E-14 -0.20774889481E+03  0.24245543958E+03  0.12500014755E+03 0.  0.
    9000006    2    3    3    0    0  0.47873093137E+01  0.12560801536E+02 -0.82139951818E+02  0.10260434510E+03  0.59999899030E+02 0.  0.
    9000007    2    3    3    0    0 -0.47873093137E+01 -0.12560801536E+02 -0.12560894299E+03  0.13985109448E+03  0.60000250013E+02 0.  0.
          5    1    4    4  501    0 -0.99700875157E+01  0.53917246599E+01  0.54073628621E+01  0.13409060855E+02  0.47000000000E+01 0.  1.
         -5    1    4    4    0  501  0.14757396829E+02  0.71690768765E+01 -0.87547314680E+02  0.89195284248E+02  0.47000000000E+01 0.  1.
         12    1    5    5    0    0  0.97817309295E+01  0.21276506342E+02 -0.62947508043E+02  0.67162197335E+02  0.00000000000E+00 0. -1.
        -12    1    5    5    0    0 -0.14569040243E+02 -0.33837307878E+02 -0.62661434952E+02  0.72688897146E+02  0.00000000000E+00 0. -1.
<mgrwt>
<rscale>  0 0.12500015E+03</rscale>
<asrwt>0</asrwt>
<pdfrwt beam="1">  1       21 0.26697343E-02 0.12500015E+03</pdfrwt>
<pdfrwt beam="2">  1       21 0.34631102E-01 0.12500015E+03</pdfrwt>
<totfact> 0.60595636E+06</totfact>
</mgrwt>
</event>
<event>
 9    1  0.4458519E-002  0.1249890E+03  0.7818608E-02  0.1235086E+00
         21   -1    0    0  503  502  0.00000000000E+00  0.00000000000E+00  0.10053787622E+04  0.10053787622E+04  0.00000000000E+00 0.  1.
         21   -1    0    0  502  503 -0.00000000000E+00 -0.00000000000E+00 -0.38846668422E+01  0.38846668422E+01  0.00000000000E+00 0.  1.
         25    2    1    2    0    0 -0.17763568394E-14  0.35527136788E-14  0.10014940954E+04  0.10092634290E+04  0.12498898418E+03 0.  0.
    9000006    2    3    3    0    0  0.40200142876E+01  0.99330602490E+01  0.61223365504E+03  0.61526008181E+03  0.60000780955E+02 0.  0.
    9000007    2    3    3    0    0 -0.40200142876E+01 -0.99330602490E+01  0.38926044032E+03  0.39400334722E+03  0.60001008542E+02 0.  0.
          5    1    4    4  501    0 -0.11412264387E+02 -0.18934852466E+02  0.38146236998E+03  0.38213138857E+03  0.47000000000E+01 0. -1.
         -5    1    4    4    0  501  0.15432278674E+02  0.28867912715E+02  0.23077128505E+03  0.23312869325E+03  0.47000000000E+01 0. -1.
         12    1    5    5    0    0 -0.31255981712E+02 -0.91781080736E-01  0.23235222478E+03  0.23444509203E+03  0.00000000000E+00 0.  1.
        -12    1    5    5    0    0  0.27235967425E+02 -0.98412791683E+01  0.15690821554E+03  0.15955825519E+03  0.00000000000E+00 0.  1.
<mgrwt>
<rscale>  0 0.12498898E+03</rscale>
<asrwt>0</asrwt>
<pdfrwt beam="1">  1       21 0.15467345E+00 0.12498898E+03</pdfrwt>
<pdfrwt beam="2">  1       21 0.59764186E-03 0.12498898E+03</pdfrwt>
<totfact> 0.23395143E+06</totfact>
</mgrwt>
</event>
<event>
 9    1  0.4458519E-002  0.1249958E+03  0.7818608E-02  0.1235076E+00
         21   -1    0    0  503  502  0.00000000000E+00  0.00000000000E+00  0.55932398714E+03  0.55932398714E+03  0.00000000000E+00 0. -1.
         21   -1    0    0  502  503 -0.00000000000E+00 -0.00000000000E+00 -0.69834049162E+01  0.69834049162E+01  0.00000000000E+00 0. -1.
         25    2    1    2    0    0  0.00000000000E+00  0.00000000000E+00  0.55234058222E+03  0.56630739205E+03  0.12499577403E+03 0.  0.
    9000006    2    3    3    0    0  0.64573722061E+01 -0.69341542418E+01  0.34278354026E+03  0.34812406166E+03  0.60000222360E+02 0.  0.
    9000007    2    3    3    0    0 -0.64573722061E+01  0.69341542418E+01  0.20955704196E+03  0.21818333039E+03  0.60000263957E+02 0.  0.
          5    1    4    4  501    0  0.12982204124E+02  0.15661430036E+02  0.28211974321E+03  0.28289124681E+03  0.47000000000E+01 0.  1.
         -5    1    4    4    0  501 -0.65248319180E+01 -0.22595584277E+02  0.60663797047E+02  0.65232814844E+02  0.47000000000E+01 0.  1.
         12    1    5    5    0    0 -0.50300039135E+01 -0.20621787493E+02  0.31395459803E+02  0.37897677436E+02  0.00000000000E+00 0. -1.
        -12    1    5    5    0    0 -0.14273682926E+01  0.27555941734E+02  0.17816158216E+03  0.18028565296E+03  0.00000000000E+00 0. -1.
<mgrwt>
<rscale>  0 0.12499577E+03</rscale>
<asrwt>0</asrwt>
<pdfrwt beam="1">  1       21 0.86049809E-01 0.12499577E+03</pdfrwt>
<pdfrwt beam="2">  1       21 0.10743704E-02 0.12499577E+03</pdfrwt>
<totfact> 0.38666131E+06</totfact>
</mgrwt>
</event>
<event>
 9    1  0.4458519E-002  0.1249973E+03  0.7818608E-02  0.1235073E+00
         21   -1    0    0  503  502  0.00000000000E+00  0.00000000000E+00  0.18707191067E+02  0.18707191067E+02  0.00000000000E+00 0.  1.
         21   -1    0    0  502  503 -0.00000000000E+00 -0.00000000000E+00 -0.20880120284E+03  0.20880120284E+03  0.00000000000E+00 0.  1.
         25    2    1    2    0    0  0.00000000000E+00  0.00000000000E+00 -0.19009401178E+03  0.22750839391E+03  0.12499734392E+03 0.  0.
    9000006    2    3    3    0    0  0.13633673315E+02 -0.10842828670E+02 -0.98050862436E+02  0.11626456402E+03  0.60000276996E+02 0.  0.
    9000007    2    3    3    0    0 -0.13633673315E+02  0.10842828670E+02 -0.92043149339E+02  0.11124382989E+03  0.59998369709E+02 0.  0.
          5    1    4    4  501    0  0.98215788893E+01 -0.35416019666E+02 -0.61738135824E+02  0.72003092127E+02  0.47000000000E+01 0. -1.
         -5    1    4    4    0  501  0.38120944253E+01  0.24573190997E+02 -0.36312726612E+02  0.44261471888E+02  0.47000000000E+01 0. -1.
         12    1    5    5    0    0 -0.69567221918E+01  0.35710392013E+02 -0.48051110154E+02  0.60270533998E+02  0.00000000000E+00 0.  1.
        -12    1    5    5    0    0 -0.66769511228E+01 -0.24867563343E+02 -0.43992039185E+02  0.50973295897E+02  0.00000000000E+00 0.  1.
<mgrwt>
<rscale>  0 0.12499734E+03</rscale>
<asrwt>0</asrwt>
<pdfrwt beam="1">  1       21 0.28780295E-02 0.12499734E+03</pdfrwt>
<pdfrwt beam="2">  1       21 0.32123261E-01 0.12499734E+03</pdfrwt>
<totfact> 0.62066977E+06</totfact>
</mgrwt>
</event>
<event>
 9    1  0.4458519E-002  0.1249991E+03  0.7818608E-02  0.1235071E+00
         21   -1    0    0  503  502  0.00000000000E+00  0.00000000000E+00  0.98733796366E+01  0.98733796366E+01  0.00000000000E+00 0.  1.
         21   -1    0    0  502  503 -0.00000000000E+00 -0.00000000000E+00 -0.39562893774E+03  0.39562893774E+03  0.00000000000E+00 0.  1.
         25    2    1    2    0    0  0.00000000000E+00  0.00000000000E+00 -0.38575555811E+03  0.40550231738E+03  0.12499911516E+03 0.  0.
    9000006    2    3    3    0    0 -0.89644652471E+01  0.11897448844E+02 -0.22267412960E+03  0.23109676047E+03  0.60000281510E+02 0.  0.
    9000007    2    3    3    0    0  0.89644652471E+01 -0.11897448844E+02 -0.16308142851E+03  0.17440555691E+03  0.59998625239E+02 0.  0.
          5    1    4    4  501    0  0.68486218922E+00 -0.21355280509E+02 -0.13421859503E+03  0.13598984628E+03  0.47000000000E+01 0.  1.
         -5    1    4    4    0  501 -0.96493274363E+01  0.33252729353E+02 -0.88455534575E+02  0.95106914188E+02  0.47000000000E+01 0.  1.
         12    1    5    5    0    0  0.26886486231E+02  0.47888323966E+01 -0.37107213056E+02  0.46073433976E+02  0.00000000000E+00 0. -1.
        -12    1    5    5    0    0 -0.17922020984E+02 -0.16686281241E+02 -0.12597421545E+03  0.12833212293E+03  0.00000000000E+00 0. -1.
<mgrwt>
<rscale>  0 0.12499912E+03</rscale>
<asrwt>0</asrwt>
<pdfrwt beam="1">  1       21 0.15189814E-02 0.12499912E+03</pdfrwt>
<pdfrwt beam="2">  1       21 0.60865992E-01 0.12499912E+03</pdfrwt>
<totfact> 0.47679570E+06</totfact>
</mgrwt>
</event>
<event>
 9    1  0.4458519E-002  0.1249996E+03  0.7818608E-02  0.1235070E+00
         21   -1    0    0  503  502  0.00000000000E+00  0.00000000000E+00  0.56220094569E+02  0.56220094569E+02  0.00000000000E+00 0. -1.
         21   -1    0    0  502  503 -0.00000000000E+00 -0.00000000000E+00 -0.69480908059E+02  0.69480908059E+02  0.00000000000E+00 0. -1.
         25    2    1    2    0    0 -0.35527136788E-14  0.17763568394E-14 -0.13260813490E+02  0.12570100263E+03  0.12499957155E+03 0.  0.
    9000006    2    3    3    0    0  0.28371327342E+01 -0.11959278614E+02  0.58952462199E+01  0.61529105186E+02  0.60000026583E+02 0.  0.
    9000007    2    3    3    0    0 -0.28371327342E+01  0.11959278614E+02 -0.19156059709E+02  0.64171897442E+02  0.60000034421E+02 0.  0.
          5    1    4    4  501    0  0.20777677630E+02  0.10928247507E+02 -0.12287457155E+02  0.26911151678E+02  0.47000000000E+01 0.  1.
         -5    1    4    4    0  501 -0.17940544896E+02 -0.22887526121E+02  0.18182703374E+02  0.34617953509E+02  0.47000000000E+01 0.  1.
         12    1    5    5    0    0  0.16549170819E+02  0.26480935501E+02  0.29668710442E+01  0.31367456441E+02  0.00000000000E+00 0.  1.
        -12    1    5    5    0    0 -0.19386303554E+02 -0.14521656887E+02 -0.22122930754E+02  0.32804441000E+02  0.00000000000E+00 0.  1.
<mgrwt>
<rscale>  0 0.12499957E+03</rscale>
<asrwt>0</asrwt>
<pdfrwt beam="1">  1       21 0.86492454E-02 0.12499957E+03</pdfrwt>
<pdfrwt beam="2">  1       21 0.10689370E-01 0.12499957E+03</pdfrwt>
<totfact> 0.73948206E+06</totfact>
</mgrwt>
</event>
<event>
 9    1  0.4458519E-002  0.1250016E+03  0.7818608E-02  0.1235067E+00
         21   -1    0    0  503  502  0.00000000000E+00  0.00000000000E+00  0.17570719218E+03  0.17570719218E+03  0.00000000000E+00 0. -1.
         21   -1    0    0  502  503 -0.00000000000E+00 -0.00000000000E+00 -0.22232159733E+02  0.22232159733E+02  0.00000000000E+00 0. -1.
         25    2    1    2    0    0  0.00000000000E+00  0.35527136788E-14  0.15347503245E+03  0.19793935192E+03  0.12500160580E+03 0.  0.
    9000006    2    3    3    0    0 -0.13530088346E+02  0.10598355290E+02  0.82009264438E+02  0.10305766227E+03  0.59999782285E+02 0.  0.
    9000007    2    3    3    0    0  0.13530088346E+02 -0.10598355290E+02  0.71465768013E+02  0.94881689643E+02  0.59998255027E+02 0.  0.
          5    1    4    4  501    0 -0.80244378966E+01  0.27912168121E+02  0.14140853723E+02  0.32642525588E+02  0.47000000000E+01 0.  1.
         -5    1    4    4    0  501 -0.55056504491E+01 -0.17313812830E+02  0.67868410714E+02  0.70415136686E+02  0.47000000000E+01 0.  1.
         12    1    5    5    0    0 -0.10978151967E+02 -0.28652692660E+02  0.26284022320E+02  0.40402307442E+02  0.00000000000E+00 0. -1.
        -12    1    5    5    0    0  0.24508240313E+02  0.18054337370E+02  0.45181745693E+02  0.54479382201E+02  0.00000000000E+00 0. -1.
<mgrwt>
<rscale>  0 0.12500161E+03</rscale>
<asrwt>0</asrwt>
<pdfrwt beam="1">  1       21 0.27031875E-01 0.12500161E+03</pdfrwt>
<pdfrwt beam="2">  1       21 0.34203324E-02 0.12500161E+03</pdfrwt>
<totfact> 0.65148098E+06</totfact>
</mgrwt>
</event>
<event>
 9    1  0.4458519E-002  0.1250002E+03  0.7818608E-02  0.1235069E+00
         21   -1    0    0  503  502  0.00000000000E+00  0.00000000000E+00  0.62409788224E+01  0.62409788224E+01  0.00000000000E+00 0. -1.
         21   -1    0    0  502  503 -0.00000000000E+00 -0.00000000000E+00 -0.62590560974E+03  0.62590560974E+03  0.00000000000E+00 0. -1.
         25    2    1    2    0    0  0.00000000000E+00 -0.35527136788E-14 -0.61966463092E+03  0.63214658857E+03  0.12500021848E+03 0.  0.
    9000006    2    3    3    0    0  0.14930822110E+02  0.82581469610E+01 -0.29014779742E+03  0.29677735489E+03  0.59999396526E+02 0.  0.
    9000007    2    3    3    0    0 -0.14930822110E+02 -0.82581469610E+01 -0.32951683350E+03  0.33536923368E+03  0.60000440835E+02 0.  0.
          5    1    4    4  501    0 -0.15346458053E+01 -0.24678080620E+02 -0.10956145948E+03  0.11241515113E+03  0.47000000000E+01 0. -1.
         -5    1    4    4    0  501  0.16465467915E+02  0.32936227581E+02 -0.18058633795E+03  0.18436220376E+03  0.47000000000E+01 0. -1.
         12    1    5    5    0    0 -0.18440601545E+02 -0.32501258450E+02 -0.21952048285E+03  0.22267831052E+03  0.00000000000E+00 0. -1.
        -12    1    5    5    0    0  0.35097794351E+01  0.24243111489E+02 -0.10999635065E+03  0.11269092316E+03  0.00000000000E+00 0. -1.
<mgrwt>
<rscale>  0 0.12500022E+03</rscale>
<asrwt>0</asrwt>
<pdfrwt beam="1">  1       21 0.96015000E-03 0.12500022E+03</pdfrwt>
<pdfrwt beam="2">  1       21 0.96293230E-01 0.12500022E+03</pdfrwt>
<totfact> 0.35677836E+06</totfact>
</mgrwt>
</event>
<event>
 9    1  0.4458519E-002  0.1250014E+03  0.7818608E-02  0.1235067E+00
         21   -1    0    0  503  502  0.00000000000E+00  0.00000000000E+00  0.11213111095E+04  0.11213111095E+04  0.00000000000E+00 0.  1.
         21   -1    0    0  502  503 -0.00000000000E+00 -0.00000000000E+00 -0.34837224788E+01  0.34837224788E+01  0.00000000000E+00 0.  1.
         25    2    1    2    0    0  0.00000000000E+00 -0.17763568394E-14  0.11178273870E+04  0.11247948320E+04  0.12500138748E+03 0.  0.
    9000006    2    3    3    0    0 -0.15582963961E+02  0.34314945059E+01  0.62365647193E+03  0.62673910772E+03  0.59999252038E+02 0.  0.
    9000007    2    3    3    0    0  0.15582963961E+02 -0.34314945059E+01  0.49417091512E+03  0.49805572429E+03  0.60000060205E+02 0.  0.
          5    1    4    4  501    0  0.30022452201E+00  0.30067423231E+02  0.33713033370E+03  0.33850124368E+03  0.47000000000E+01 0. -1.
         -5    1    4    4    0  501 -0.15883188483E+02 -0.26635928725E+02  0.28652613823E+03  0.28823786404E+03  0.47000000000E+01 0. -1.
         12    1    5    5    0    0 -0.11464751218E+02  0.12216398852E+02  0.35606115231E+03  0.35645508147E+03  0.00000000000E+00 0. -1.
        -12    1    5    5    0    0  0.27047715179E+02 -0.15647893358E+02  0.13810976281E+03  0.14160064282E+03  0.00000000000E+00 0. -1.
<mgrwt>
<rscale>  0 0.12500139E+03</rscale>
<asrwt>0</asrwt>
<pdfrwt beam="1">  1       21 0.17250911E+00 0.12500139E+03</pdfrwt>
<pdfrwt beam="2">  1       21 0.53595820E-03 0.12500139E+03</pdfrwt>
<totfact> 0.20707575E+06</totfact>
</mgrwt>
</event>
<event>
 9    1  0.4458519E-002  0.1249818E+03  0.7818608E-02  0.1235098E+00
         21   -1    0    0  503  502  0.00000000000E+00  0.00000000000E+00  0.21894979386E+03  0.21894979386E+03  0.00000000000E+00 0. -1.
         21   -1    0    0  502  503 -0.00000000000E+00 -0.00000000000E+00 -0.17835649613E+02  0.17835649613E+02  0.00000000000E+00 0. -1.
         25    2    1    2    0    0  0.00000000000E+00  0.88817841970E-15  0.20111414425E+03  0.23678544347E+03  0.12498178757E+03 0.  0.
    9000006    2    3    3    0    0 -0.11535688687E+02 -0.24446690306E+01  0.76141666090E+02  0.97655448834E+02  0.59999873766E+02 0.  0.
    9000007    2    3    3    0    0  0.11535688687E+02  0.24446690306E+01  0.12497247816E+03  0.13912999464E+03  0.59999888262E+02 0.  0.
          5    1    4    4  501    0  0.72145463322E+01 -0.68231370676E+01 -0.64360048541E+01  0.12732518867E+02  0.47000000000E+01 0.  1.
         -5    1    4    4    0  501 -0.18750235020E+02  0.43784680370E+01  0.82577670944E+02  0.84922929967E+02  0.47000000000E+01 0.  1.
         12    1    5    5    0    0  0.11419209878E+02 -0.13418263085E+02  0.12165390793E+03  0.12292323398E+03  0.00000000000E+00 0.  1.
        -12    1    5    5    0    0  0.11647880955E+00  0.15862932116E+02  0.33185702289E+01  0.16206760657E+02  0.00000000000E+00 0.  1.
<mgrwt>
<rscale>  0 0.12498179E+03</rscale>
<asrwt>0</asrwt>
<pdfrwt beam="1">  1       21 0.33684582E-01 0.12498179E+03</pdfrwt>
<pdfrwt beam="2">  1       21 0.27439462E-02 0.12498179E+03</pdfrwt>
<totfact> 0.61173229E+06</totfact>
</mgrwt>
</event>
<event>
 9    1  0.4458519E-002  0.1249989E+03  0.7818608E-02  0.1235071E+00
         21   -1    0    0  503  502  0.00000000000E+00  0.00000000000E+00  0.25009614419E+03  0.25009614419E+03  0.00000000000E+00 0.  1.
         21   -1    0    0  502  503 -0.00000000000E+00 -0.00000000000E+00 -0.15618726165E+02  0.15618726165E+02  0.00000000000E+00 0.  1.
         25    2    1    2    0    0 -0.17763568394E-14 -0.17763568394E-14  0.23447741803E+03  0.26571487036E+03  0.12499893105E+03 0.  0.
    9000006    2    3    3    0    0 -0.11684959148E+02  0.13002076801E+02  0.11553290470E+03  0.13135206400E+03  0.59999336476E+02 0.  0.
    9000007    2    3    3    0    0  0.11684959148E+02 -0.13002076801E+02  0.11894451333E+03  0.13436280636E+03  0.59999785080E+02 0.  0.
          5    1    4    4  501    0 -0.15203059927E+02  0.25321775393E+01  0.11800210779E+03  0.11909715528E+03  0.47000000000E+01 0.  1.
         -5    1    4    4    0  501  0.35181007798E+01  0.10469899262E+02 -0.24692030932E+01  0.12254908713E+02  0.47000000000E+01 0.  1.
         12    1    5    5    0    0  0.19729629442E+02 -0.66177783759E+01  0.12190977949E+03  0.12367314828E+03  0.00000000000E+00 0.  1.
        -12    1    5    5    0    0 -0.80446702945E+01 -0.63842984255E+01 -0.29652661610E+01  0.10689658083E+02  0.00000000000E+00 0.  1.
<mgrwt>
<rscale>  0 0.12499893E+03</rscale>
<asrwt>0</asrwt>
<pdfrwt beam="1">  1       21 0.38476327E-01 0.12499893E+03</pdfrwt>
<pdfrwt beam="2">  1       21 0.24028811E-02 0.12499893E+03</pdfrwt>
<totfact> 0.58430975E+06</totfact>
</mgrwt>
</event>
<event>
 9    1  0.4458519E-002  0.1249922E+03  0.7818608E-02  0.1235081E+00
         21   -1    0    0  503  502  0.00000000000E+00  0.00000000000E+00  0.34591223714E+03  0.34591223714E+03  0.00000000000E+00 0. -1.
         21   -1    0    0  502  503 -0.00000000000E+00 -0.00000000000E+00 -0.11291195839E+02  0.11291195839E+02  0.00000000000E+00 0. -1.
         25    2    1    2    0    0  0.17763568394E-14  0.35527136788E-14  0.33462104130E+03  0.35720343298E+03  0.12499220476E+03 0.  0.
    9000006    2    3    3    0    0  0.15900116970E+02 -0.45210442723E+01  0.18346179351E+03  0.19373245923E+03  0.60006520645E+02 0.  0.
    9000007    2    3    3    0    0 -0.15900116970E+02  0.45210442723E+01  0.15115924779E+03  0.16347097375E+03  0.60003229124E+02 0.  0.
          5    1    4    4  501    0 -0.14737407749E+01  0.23807502503E+02  0.11430341640E+03  0.11686030159E+03  0.47000000000E+01 0.  1.
         -5    1    4    4    0  501  0.17373857745E+02 -0.28328546775E+02  0.69158377112E+02  0.76872157640E+02  0.47000000000E+01 0.  1.
         12    1    5    5    0    0  0.61358665503E+00  0.23850816081E+02  0.24171048225E+02  0.33962883986E+02  0.00000000000E+00 0. -1.
        -12    1    5    5    0    0 -0.16513703625E+02 -0.19329771809E+02  0.12698819957E+03  0.12950808977E+03  0.00000000000E+00 0. -1.
<mgrwt>
<rscale>  0 0.12499220E+03</rscale>
<asrwt>0</asrwt>
<pdfrwt beam="1">  1       21 0.53217259E-01 0.12499220E+03</pdfrwt>
<pdfrwt beam="2">  1       21 0.17371073E-02 0.12499220E+03</pdfrwt>
<totfact> 0.51020762E+06</totfact>
</mgrwt>
</event>
<event>
 9    1  0.4458519E-002  0.1249998E+03  0.7818608E-02  0.1235070E+00
         21   -1    0    0  503  502  0.00000000000E+00  0.00000000000E+00  0.13402898618E+03  0.13402898618E+03  0.00000000000E+00 0. -1.
         21   -1    0    0  502  503 -0.00000000000E+00 -0.00000000000E+00 -0.29144707189E+02  0.29144707189E+02  0.00000000000E+00 0. -1.
         25    2    1    2    0    0  0.00000000000E+00  0.88817841970E-15  0.10488427899E+03  0.16317369337E+03  0.12499976891E+03 0.  0.
    9000006    2    3    3    0    0  0.99261402114E+01  0.11747815021E+01  0.33684812984E+02  0.69530837278E+02  0.59999686130E+02 0.  0.
    9000007    2    3    3    0    0 -0.99261402114E+01 -0.11747815021E+01  0.71199466010E+02  0.93642856094E+02  0.59997601338E+02 0.  0.
          5    1    4    4  501    0  0.26576601725E+02 -0.61829384831E+01  0.40902112967E+02  0.49392482553E+02  0.47000000000E+01 0. -1.
         -5    1    4    4    0  501 -0.16650461513E+02  0.73577199852E+01 -0.72172999837E+01  0.20138354725E+02  0.47000000000E+01 0. -1.
         12    1    5    5    0    0 -0.13142576695E+02  0.27425009013E+02  0.47301361359E+02  0.56234128676E+02  0.00000000000E+00 0.  1.
        -12    1    5    5    0    0  0.32164364840E+01 -0.28599790515E+02  0.23898104651E+02  0.37408727418E+02  0.00000000000E+00 0.  1.
<mgrwt>
<rscale>  0 0.12499977E+03</rscale>
<asrwt>0</asrwt>
<pdfrwt beam="1">  1       21 0.20619844E-01 0.12499977E+03</pdfrwt>
<pdfrwt beam="2">  1       21 0.44838012E-02 0.12499977E+03</pdfrwt>
<totfact> 0.69134176E+06</totfact>
</mgrwt>
</event>
<event>
 9    1  0.4458519E-002  0.1250011E+03  0.7818608E-02  0.1235068E+00
         21   -1    0    0  503  502  0.00000000000E+00  0.00000000000E+00  0.16824906251E+03  0.16824906251E+03  0.00000000000E+00 0. -1.
         21   -1    0    0  502  503 -0.00000000000E+00 -0.00000000000E+00 -0.23217488555E+02  0.23217488555E+02  0.00000000000E+00 0. -1.
         25    2    1    2    0    0 -0.17763568394E-14 -0.71054273576E-14  0.14503157395E+03  0.19146655106E+03  0.12500113092E+03 0.  0.
    9000006    2    3    3    0    0 -0.11657266544E+02 -0.12721183843E+02  0.77061537650E+02  0.99170766832E+02  0.59988665824E+02 0.  0.
    9000007    2    3    3    0    0  0.11657266544E+02  0.12721183843E+02  0.67970036303E+02  0.92295784231E+02  0.60007212651E+02 0.  0.
          5    1    4    4  501    0  0.23824807310E+01 -0.34982339041E+02  0.48717468644E+02  0.60207325221E+02  0.47000000000E+01 0.  1.
         -5    1    4    4    0  501 -0.14039747275E+02  0.22261155199E+02  0.28344069007E+02  0.38963441611E+02  0.47000000000E+01 0.  1.
         12    1    5    5    0    0  0.34356580859E+01  0.36672663252E+02  0.35914548789E+02  0.51444560365E+02  0.00000000000E+00 0.  1.
        -12    1    5    5    0    0  0.82216084578E+01 -0.23951479409E+02  0.32055487514E+02  0.40851223865E+02  0.00000000000E+00 0.  1.
<mgrwt>
<rscale>  0 0.12500113E+03</rscale>
<asrwt>0</asrwt>
<pdfrwt beam="1">  1       21 0.25884470E-01 0.12500113E+03</pdfrwt>
<pdfrwt beam="2">  1       21 0.35719214E-02 0.12500113E+03</pdfrwt>
<totfact> 0.65857954E+06</totfact>
</mgrwt>
</event>
<event>
 9    1  0.4458519E-002  0.1249969E+03  0.7818608E-02  0.1235074E+00
         21   -1    0    0  503  502  0.00000000000E+00  0.00000000000E+00  0.65925856199E+01  0.65925856199E+01  0.00000000000E+00 0.  1.
         21   -1    0    0  502  503 -0.00000000000E+00 -0.00000000000E+00 -0.59249243992E+03  0.59249243992E+03  0.00000000000E+00 0.  1.
         25    2    1    2    0    0  0.35527136788E-14 -0.19984014443E-14 -0.58589985430E+03  0.59908502554E+03  0.12499691419E+03 0.  0.
    9000006    2    3    3    0    0 -0.17278069744E+02  0.10817530752E+01 -0.28075517857E+03  0.28761604087E+03  0.59998456518E+02 0.  0.
    9000007    2    3    3    0    0  0.17278069744E+02 -0.10817530752E+01 -0.30514467573E+03  0.31146898468E+03  0.59999611706E+02 0.  0.
          5    1    4    4  501    0  0.58236692370E+01 -0.25603807779E+02 -0.11005893176E+03  0.11324543503E+03  0.47000000000E+01 0. -1.
         -5    1    4    4    0  501 -0.23101738981E+02  0.26685560854E+02 -0.17069624681E+03  0.17437060583E+03  0.47000000000E+01 0. -1.
         12    1    5    5    0    0  0.39768274978E+02  0.70337949739E+00 -0.18560032314E+03  0.18981435770E+03  0.00000000000E+00 0. -1.
        -12    1    5    5    0    0 -0.22490205233E+02 -0.17851325726E+01 -0.11954435259E+03  0.12165462698E+03  0.00000000000E+00 0. -1.
<mgrwt>
<rscale>  0 0.12499691E+03</rscale>
<asrwt>0</asrwt>
<pdfrwt beam="1">  1       21 0.10142440E-02 0.12499691E+03</pdfrwt>
<pdfrwt beam="2">  1       21 0.91152679E-01 0.12499691E+03</pdfrwt>
<totfact> 0.37136890E+06</totfact>
</mgrwt>
</event>
<event>
 9    1  0.4458519E-002  0.1249978E+03  0.7818608E-02  0.1235073E+00
         21   -1    0    0  503  502  0.00000000000E+00  0.00000000000E+00  0.21757749342E+02  0.21757749342E+02  0.00000000000E+00 0. -1.
         21   -1    0    0  502  503 -0.00000000000E+00 -0.00000000000E+00 -0.17952750534E+03  0.17952750534E+03  0.00000000000E+00 0. -1.
         25    2    1    2    0    0  0.17763568394E-14  0.00000000000E+00 -0.15776975600E+03  0.20128525468E+03  0.12499783136E+03 0.  0.
    9000006    2    3    3    0    0 -0.82342045636E-01  0.95745066861E+01 -0.55305046027E+02  0.82160631459E+02  0.60000360726E+02 0.  0.
    9000007    2    3    3    0    0  0.82342045636E-01 -0.95745066861E+01 -0.10246470997E+03  0.11912462322E+03  0.59999842584E+02 0.  0.
          5    1    4    4  501    0  0.19053045497E+02  0.13796168621E+02 -0.74698870533E+00  0.24000016739E+02  0.47000000000E+01 0. -1.
         -5    1    4    4    0  501 -0.19135387543E+02 -0.42216619353E+01 -0.54558057322E+02  0.58160614720E+02  0.47000000000E+01 0. -1.
         12    1    5    5    0    0 -0.94231690057E+01 -0.16425954029E+02 -0.10536534134E+03  0.10705355312E+03  0.00000000000E+00 0.  1.
        -12    1    5    5    0    0  0.95055110513E+01  0.68514473428E+01  0.29006313712E+01  0.12071070101E+02  0.00000000000E+00 0.  1.
<mgrwt>
<rscale>  0 0.12499783E+03</rscale>
<asrwt>0</asrwt>
<pdfrwt beam="1">  1       21 0.33473459E-02 0.12499783E+03</pdfrwt>
<pdfrwt beam="2">  1       21 0.27619617E-01 0.12499783E+03</pdfrwt>
<totfact> 0.64791808E+06</totfact>
</mgrwt>
</event>
<event>
 9    1  0.4458519E-002  0.1250011E+03  0.7818608E-02  0.1235067E+00
         21   -1    0    0  503  502  0.00000000000E+00  0.00000000000E+00  0.94937577371E+01  0.94937577371E+01  0.00000000000E+00 0.  1.
         21   -1    0    0  502  503 -0.00000000000E+00 -0.00000000000E+00 -0.41146213829E+03  0.41146213829E+03  0.00000000000E+00 0.  1.
         25    2    1    2    0    0  0.17763568394E-14  0.13322676296E-14 -0.40196838056E+03  0.42095589603E+03  0.12500114974E+03 0.  0.
    9000006    2    3    3    0    0  0.11939163700E+02 -0.53840758684E+00 -0.15793871344E+03  0.16937394772E+03  0.60000528746E+02 0.  0.
    9000007    2    3    3    0    0 -0.11939163700E+02  0.53840758684E+00 -0.24402966711E+03  0.25158194831E+03  0.60001373080E+02 0.  0.
          5    1    4    4  501    0 -0.16372515901E+02 -0.19870938804E+02 -0.77774799762E+02  0.82060483571E+02  0.47000000000E+01 0. -1.
         -5    1    4    4    0  501  0.28311679601E+02  0.19332531217E+02 -0.80163913681E+02  0.87313464150E+02  0.47000000000E+01 0. -1.
         12    1    5    5    0    0  0.20500959075E+01  0.27396285738E+01  0.27539516530E+01  0.43923464868E+01  0.00000000000E+00 0.  1.
        -12    1    5    5    0    0 -0.13989259608E+02 -0.22012209870E+01 -0.24678361876E+03  0.24718960182E+03  0.00000000000E+00 0.  1.
<mgrwt>
<rscale>  0 0.12500115E+03</rscale>
<asrwt>0</asrwt>
<pdfrwt beam="1">  1       21 0.14605779E-02 0.12500115E+03</pdfrwt>
<pdfrwt beam="2">  1       21 0.63301877E-01 0.12500115E+03</pdfrwt>
<totfact> 0.46680393E+06</totfact>
</mgrwt>
</event>
<event>
 9    1  0.4458519E-002  0.1249979E+03  0.7818608E-02  0.1235073E+00
         21   -1    0    0  503  502  0.00000000000E+00  0.00000000000E+00  0.91911508961E+02  0.91911508961E+02  0.00000000000E+00 0. -1.
         21   -1    0    0  502  503 -0.00000000000E+00 -0.00000000000E+00 -0.42498710259E+02  0.42498710259E+02  0.00000000000E+00 0. -1.
         25    2    1    2    0    0 -0.17763568394E-14  0.17763568394E-14  0.49412798702E+02  0.13441021922E+03  0.12499792940E+03 0.  0.
    9000006    2    3    3    0    0  0.11155400364E+02  0.12881530330E+02  0.28971244706E+02  0.68773094991E+02  0.60000239948E+02 0.  0.
    9000007    2    3    3    0    0 -0.11155400364E+02 -0.12881530330E+02  0.20441553996E+02  0.65637124228E+02  0.59999984719E+02 0.  0.
          5    1    4    4  501    0 -0.48271030794E+01  0.33415390885E+02  0.79731071531E+01  0.35007852117E+02  0.47000000000E+01 0. -1.
         -5    1    4    4    0  501  0.15982503444E+02 -0.20533860556E+02  0.20998137553E+02  0.33765242874E+02  0.47000000000E+01 0. -1.
         12    1    5    5    0    0 -0.35547868148E+02 -0.24142960215E+01  0.14300690542E+02  0.38392570963E+02  0.00000000000E+00 0.  1.
        -12    1    5    5    0    0  0.24392467784E+02 -0.10467234308E+02  0.61408634542E+01  0.27244553265E+02  0.00000000000E+00 0.  1.
<mgrwt>
<rscale>  0 0.12499793E+03</rscale>
<asrwt>0</asrwt>
<pdfrwt beam="1">  1       21 0.14140232E-01 0.12499793E+03</pdfrwt>
<pdfrwt beam="2">  1       21 0.65382631E-02 0.12499793E+03</pdfrwt>
<totfact> 0.72778501E+06</totfact>
</mgrwt>
</event>
<event>
 9    1  0.4458519E-002  0.1249977E+03  0.7818608E-02  0.1235073E+00
         21   -1    0    0  503  502  0.00000000000E+00  0.00000000000E+00  0.14188529947E+02  0.14188529947E+02  0.00000000000E+00 0. -1.
         21   -1    0    0  502  503 -0.00000000000E+00 -0.00000000000E+00 -0.27530006017E+03  0.27530006017E+03  0.00000000000E+00 0. -1.
         25    2    1    2    0    0  0.00000000000E+00  0.00000000000E+00 -0.26111153022E+03  0.28948859011E+03  0.12499765035E+03 0.  0.
    9000006    2    3    3    0    0 -0.93293234348E+01  0.10952630725E+02 -0.10747795371E+03  0.12392798567E+03  0.59996989115E+02 0.  0.
    9000007    2    3    3    0    0  0.93293234348E+01 -0.10952630725E+02 -0.15363357651E+03  0.16556060444E+03  0.60000345975E+02 0.  0.
          5    1    4    4  501    0  0.36890384668E+01  0.25762610836E+02 -0.98083097471E+02  0.10158594948E+03  0.47000000000E+01 0.  1.
         -5    1    4    4    0  501 -0.13018361902E+02 -0.14809980110E+02 -0.93948562416E+01  0.22342036193E+02  0.47000000000E+01 0.  1.
         12    1    5    5    0    0  0.19361707620E+02  0.17800704685E+02 -0.10446532090E+03  0.10772531773E+03  0.00000000000E+00 0.  1.
        -12    1    5    5    0    0 -0.10032384185E+02 -0.28753335410E+02 -0.49168255610E+02  0.57835286715E+02  0.00000000000E+00 0.  1.
<mgrwt>
<rscale>  0 0.12499765E+03</rscale>
<asrwt>0</asrwt>
<pdfrwt beam="1">  1       21 0.21828510E-02 0.12499765E+03</pdfrwt>
<pdfrwt beam="2">  1       21 0.42353851E-01 0.12499765E+03</pdfrwt>
<totfact> 0.56344515E+06</totfact>
</mgrwt>
</event>
<event>
 9    1  0.4458519E-002  0.1250081E+03  0.7818608E-02  0.1235057E+00
         21   -1    0    0  503  502  0.00000000000E+00  0.00000000000E+00  0.18890951551E+02  0.18890951551E+02  0.00000000000E+00 0.  1.
         21   -1    0    0  502  503 -0.00000000000E+00 -0.00000000000E+00 -0.20680576419E+03  0.20680576419E+03  0.00000000000E+00 0.  1.
         25    2    1    2    0    0  0.00000000000E+00  0.35527136788E-14 -0.18791481264E+03  0.22569671574E+03  0.12500812248E+03 0.  0.
    9000006    2    3    3    0    0 -0.10149738222E+02 -0.13626272166E+02 -0.86286539421E+02  0.10646198606E+03  0.60000792589E+02 0.  0.
    9000007    2    3    3    0    0  0.10149738222E+02  0.13626272166E+02 -0.10162827321E+03  0.11923472968E+03  0.59999353043E+02 0.  0.
          5    1    4    4  501    0  0.15938122765E+01 -0.10621188400E+02 -0.91650833475E+02  0.92397592811E+02  0.47000000000E+01 0.  1.
         -5    1    4    4    0  501 -0.11743550499E+02 -0.30050837665E+01  0.53642940537E+01  0.14064393249E+02  0.47000000000E+01 0.  1.
         12    1    5    5    0    0 -0.21798373600E+02 -0.75019831805E+01 -0.28261263268E+02  0.36471191984E+02  0.00000000000E+00 0.  1.
        -12    1    5    5    0    0  0.31948111822E+02  0.21128255347E+02 -0.73367009947E+02  0.82763537693E+02  0.00000000000E+00 0.  1.
<mgrwt>
<rscale>  0 0.12500812E+03</rscale>
<asrwt>0</asrwt>
<pdfrwt beam="1">  1       21 0.29063000E-02 0.12500812E+03</pdfrwt>
<pdfrwt beam="2">  1       21 0.31816274E-01 0.12500812E+03</pdfrwt>
<totfact> 0.62232087E+06</totfact>
</mgrwt>
</event>
<event>
 9    1  0.4458519E-002  0.1250006E+03  0.7818608E-02  0.1235068E+00
         21   -1    0    0  503  502  0.00000000000E+00  0.00000000000E+00  0.16509663296E+03  0.16509663296E+03  0.00000000000E+00 0. -1.
         21   -1    0    0  502  503 -0.00000000000E+00 -0.00000000000E+00 -0.23660608418E+02  0.23660608418E+02  0.00000000000E+00 0. -1.
         25    2    1    2    0    0  0.00000000000E+00  0.00000000000E+00  0.14143602454E+03  0.18875724138E+03  0.12500058854E+03 0.  0.
    9000006    2    3    3    0    0  0.88305226567E+01 -0.20056094920E+01  0.48107700391E+02  0.77436769662E+02  0.60000848819E+02 0.  0.
    9000007    2    3    3    0    0 -0.88305226567E+01  0.20056094920E+01  0.93328324154E+02  0.11132047172E+03  0.60000589449E+02 0.  0.
          5    1    4    4  501    0  0.61473409349E+01 -0.27576904343E+02  0.41590383229E+02  0.50498766627E+02  0.47000000000E+01 0.  1.
         -5    1    4    4    0  501  0.26831817217E+01  0.25571294851E+02  0.65173171617E+01  0.26938003035E+02  0.47000000000E+01 0.  1.
         12    1    5    5    0    0 -0.28830507915E+02 -0.92160525497E+01  0.25035278798E+02  0.39279753000E+02  0.00000000000E+00 0.  1.
        -12    1    5    5    0    0  0.19999985259E+02  0.11221662042E+02  0.68293045356E+02  0.72040718718E+02  0.00000000000E+00 0.  1.
<mgrwt>
<rscale>  0 0.12500059E+03</rscale>
<asrwt>0</asrwt>
<pdfrwt beam="1">  1       21 0.25399481E-01 0.12500059E+03</pdfrwt>
<pdfrwt beam="2">  1       21 0.36400937E-02 0.12500059E+03</pdfrwt>
<totfact> 0.66159865E+06</totfact>
</mgrwt>
</event>
<event>
 9    1  0.4458519E-002  0.1250019E+03  0.7818608E-02  0.1235066E+00
         21   -1    0    0  503  502  0.00000000000E+00  0.00000000000E+00  0.46891721739E+02  0.46891721739E+02  0.00000000000E+00 0.  1.
         21   -1    0    0  502  503 -0.00000000000E+00 -0.00000000000E+00 -0.83306082558E+02  0.83306082558E+02  0.00000000000E+00 0.  1.
         25    2    1    2    0    0  0.00000000000E+00  0.00000000000E+00 -0.36414360819E+02  0.13019780430E+03  0.12500185027E+03 0.  0.
    9000006    2    3    3    0    0 -0.84043177077E+01 -0.15326441522E+02 -0.17242118986E+02  0.64828734188E+02  0.59999514527E+02 0.  0.
    9000007    2    3    3    0    0  0.84043177077E+01  0.15326441522E+02 -0.19172241834E+02  0.65369070109E+02  0.60000067534E+02 0.  0.
          5    1    4    4  501    0  0.50367238644E+00  0.27504151626E+00  0.21420530748E+02  0.21937604045E+02  0.47000000000E+01 0.  1.
         -5    1    4    4    0  501 -0.89079900941E+01 -0.15601483038E+02 -0.38662649734E+02  0.42891130143E+02  0.47000000000E+01 0.  1.
         12    1    5    5    0    0  0.79391931386E+01 -0.91477263606E+01  0.17496819455E+02  0.21280281396E+02  0.00000000000E+00 0. -1.
        -12    1    5    5    0    0  0.46512456911E+00  0.24474167883E+02 -0.36669061288E+02  0.44088788713E+02  0.00000000000E+00 0. -1.
<mgrwt>
<rscale>  0 0.12500185E+03</rscale>
<asrwt>0</asrwt>
<pdfrwt beam="1">  1       21 0.72141111E-02 0.12500185E+03</pdfrwt>
<pdfrwt beam="2">  1       21 0.12816320E-01 0.12500185E+03</pdfrwt>
<totfact> 0.73335026E+06</totfact>
</mgrwt>
</event>
<event>
 9    1  0.4458519E-002  0.1249912E+03  0.7818608E-02  0.1235083E+00
         21   -1    0    0  503  502  0.00000000000E+00  0.00000000000E+00  0.62652576488E+02  0.62652576488E+02  0.00000000000E+00 0.  1.
         21   -1    0    0  502  503 -0.00000000000E+00 -0.00000000000E+00 -0.62338990010E+02  0.62338990010E+02  0.00000000000E+00 0.  1.
         25    2    1    2    0    0  0.00000000000E+00  0.35527136788E-14  0.31358647747E+00  0.12499156650E+03  0.12499117313E+03 0.  0.
    9000006    2    3    3    0    0 -0.51743100303E+01 -0.12872681720E+02 -0.10483533958E+02  0.62469179971E+02  0.60000121192E+02 0.  0.
    9000007    2    3    3    0    0  0.51743100303E+01  0.12872681720E+02  0.10797120436E+02  0.62522386527E+02  0.59999929903E+02 0.  0.
          5    1    4    4  501    0  0.14998831131E+02 -0.25577162177E+02 -0.20323620229E+02  0.36253216403E+02  0.47000000000E+01 0.  1.
         -5    1    4    4    0  501 -0.20173141161E+02  0.12704480457E+02  0.98400862710E+01  0.26215963568E+02  0.47000000000E+01 0.  1.
         12    1    5    5    0    0 -0.27227977204E+02  0.10154713096E+02  0.46248435506E+01  0.29425671080E+02  0.00000000000E+00 0. -1.
        -12    1    5    5    0    0  0.32402287234E+02  0.27179686245E+01  0.61722768851E+01  0.33096715447E+02  0.00000000000E+00 0. -1.
<mgrwt>
<rscale>  0 0.12499117E+03</rscale>
<asrwt>0</asrwt>
<pdfrwt beam="1">  1       21 0.96388579E-02 0.12499117E+03</pdfrwt>
<pdfrwt beam="2">  1       21 0.95906138E-02 0.12499117E+03</pdfrwt>
<totfact> 0.74061433E+06</totfact>
</mgrwt>
</event>
<event>
 9    1  0.4458519E-002  0.1250009E+03  0.7818608E-02  0.1235068E+00
         21   -1    0    0  503  502  0.00000000000E+00  0.00000000000E+00  0.42368693759E+02  0.42368693759E+02  0.00000000000E+00 0.  1.
         21   -1    0    0  502  503 -0.00000000000E+00 -0.00000000000E+00 -0.92197915363E+02  0.92197915363E+02  0.00000000000E+00 0.  1.
         25    2    1    2    0    0  0.17763568394E-14 -0.35527136788E-14 -0.49829221604E+02  0.13456660912E+03  0.12500088386E+03 0.  0.
    9000006    2    3    3    0    0 -0.90592747874E+01  0.14957420934E+02 -0.24088890679E+02  0.66976647997E+02  0.59998348495E+02 0.  0.
    9000007    2    3    3    0    0  0.90592747874E+01 -0.14957420934E+02 -0.25740330926E+02  0.67589961125E+02  0.60000360900E+02 0.  0.
          5    1    4    4  501    0 -0.18950655065E+02  0.28769085378E+02 -0.32367432235E+02  0.47502929071E+02  0.47000000000E+01 0.  1.
         -5    1    4    4    0  501  0.98913802776E+01 -0.13811664444E+02  0.82785415565E+01  0.19473718926E+02  0.47000000000E+01 0.  1.
         12    1    5    5    0    0  0.75905768537E+01 -0.23811313981E+02 -0.42083277284E+02  0.48944844033E+02  0.00000000000E+00 0. -1.
        -12    1    5    5    0    0  0.14686979337E+01  0.88538930472E+01  0.16342946358E+02  0.18645117092E+02  0.00000000000E+00 0. -1.
<mgrwt>
<rscale>  0 0.12500088E+03</rscale>
<asrwt>0</asrwt>
<pdfrwt beam="1">  1       21 0.65182607E-02 0.12500088E+03</pdfrwt>
<pdfrwt beam="2">  1       21 0.14184294E-01 0.12500088E+03</pdfrwt>
<totfact> 0.72752267E+06</totfact>
</mgrwt>
</event>
<event>
 9    1  0.4458519E-002  0.1249981E+03  0.7818608E-02  0.1235072E+00
         21   -1    0    0  503  502  0.00000000000E+00  0.00000000000E+00  0.88184923840E+02  0.88184923840E+02  0.00000000000E+00 0. -1.
         21   -1    0    0  502  503 -0.00000000000E+00 -0.00000000000E+00 -0.44294808616E+02  0.44294808616E+02  0.00000000000E+00 0. -1.
         25    2    1    2    0    0  0.00000000000E+00  0.00000000000E+00  0.43890115224E+02  0.13247973246E+03  0.12499814918E+03 0.  0.
    9000006    2    3    3    0    0 -0.15457793329E+01  0.99076403146E+01  0.37141740969E+02  0.71273894799E+02  0.59999236556E+02 0.  0.
    9000007    2    3    3    0    0  0.15457793329E+01 -0.99076403146E+01  0.67483742548E+01  0.61205837657E+02  0.60000526980E+02 0.  0.
          5    1    4    4  501    0  0.10046100234E+02  0.83361425225E+01 -0.13336663339E+02  0.19245051080E+02  0.47000000000E+01 0.  1.
         -5    1    4    4    0  501 -0.11591879567E+02  0.15714977921E+01  0.50478404308E+02  0.52028843719E+02  0.47000000000E+01 0.  1.
         12    1    5    5    0    0  0.30349334826E+02 -0.43366677200E+01 -0.16136237150E+01  0.30700042228E+02  0.00000000000E+00 0.  1.
        -12    1    5    5    0    0 -0.28803555493E+02 -0.55709725946E+01  0.83619979698E+01  0.30505795429E+02  0.00000000000E+00 0.  1.
<mgrwt>
<rscale>  0 0.12499815E+03</rscale>
<asrwt>0</asrwt>
<pdfrwt beam="1">  1       21 0.13566911E-01 0.12499815E+03</pdfrwt>
<pdfrwt beam="2">  1       21 0.68145860E-02 0.12499815E+03</pdfrwt>
<totfact> 0.73035400E+06</totfact>
</mgrwt>
</event>
<event>
 9    1  0.4458519E-002  0.1250049E+03  0.7818608E-02  0.1235062E+00
         21   -1    0    0  503  502  0.00000000000E+00  0.00000000000E+00  0.35046261127E+02  0.35046261127E+02  0.00000000000E+00 0.  1.
         21   -1    0    0  502  503 -0.00000000000E+00 -0.00000000000E+00 -0.11146863857E+03  0.11146863857E+03  0.00000000000E+00 0.  1.
         25    2    1    2    0    0  0.17763568394E-14  0.00000000000E+00 -0.76422377445E+02  0.14651489970E+03  0.12500494414E+03 0.  0.
    9000006    2    3    3    0    0 -0.34288059024E+01  0.87788453297E+01 -0.20915573188E+02  0.64236097628E+02  0.59999918346E+02 0.  0.
    9000007    2    3    3    0    0  0.34288059024E+01 -0.87788453297E+01 -0.55506804257E+02  0.82278802071E+02  0.59999759301E+02 0.  0.
          5    1    4    4  501    0  0.20737342459E+02  0.15728430418E+02  0.59821201020E+01  0.27116354043E+02  0.47000000000E+01 0. -1.
         -5    1    4    4    0  501 -0.24166148361E+02 -0.69495850882E+01 -0.26897693290E+02  0.37119743585E+02  0.47000000000E+01 0. -1.
         12    1    5    5    0    0  0.99053055073E+01 -0.58615669038E+01 -0.67427213697E+02  0.68402501348E+02  0.00000000000E+00 0. -1.
        -12    1    5    5    0    0 -0.64764996049E+01 -0.29172784258E+01  0.11920409440E+02  0.13876300723E+02  0.00000000000E+00 0. -1.
<mgrwt>
<rscale>  0 0.12500494E+03</rscale>
<asrwt>0</asrwt>
<pdfrwt beam="1">  1       21 0.53917324E-02 0.12500494E+03</pdfrwt>
<pdfrwt beam="2">  1       21 0.17149022E-01 0.12500494E+03</pdfrwt>
<totfact> 0.71190826E+06</totfact>
</mgrwt>
</event>
<event>
 9    1  0.4458519E-002  0.1250010E+03  0.7818608E-02  0.1235068E+00
         21   -1    0    0  503  502  0.00000000000E+00  0.00000000000E+00  0.26259534316E+03  0.26259534316E+03  0.00000000000E+00 0. -1.
         21   -1    0    0  502  503 -0.00000000000E+00 -0.00000000000E+00 -0.14875778458E+02  0.14875778458E+02  0.00000000000E+00 0. -1.
         25    2    1    2    0    0  0.17763568394E-14  0.00000000000E+00  0.24771956470E+03  0.27747112162E+03  0.12500096238E+03 0.  0.
    9000006    2    3    3    0    0  0.72405636935E+01 -0.44252849424E+01  0.89865180601E+02  0.10838512237E+03  0.59996459543E+02 0.  0.
    9000007    2    3    3    0    0 -0.72405636935E+01  0.44252849424E+01  0.15785438410E+03  0.16908599925E+03  0.60000497095E+02 0.  0.
          5    1    4    4  501    0 -0.17800010083E+02  0.35059055162E+01  0.49607976248E+01  0.19386367517E+02  0.47000000000E+01 0.  1.
         -5    1    4    4    0  501  0.25040573776E+02 -0.79311904586E+01  0.84904382976E+02  0.88998754854E+02  0.47000000000E+01 0.  1.
         12    1    5    5    0    0  0.99151333156E+01  0.19545046168E+02  0.21064580058E+02  0.30397947816E+02  0.00000000000E+00 0.  1.
        -12    1    5    5    0    0 -0.17155697009E+02 -0.15119761226E+02  0.13678980404E+03  0.13868805143E+03  0.00000000000E+00 0.  1.
<mgrwt>
<rscale>  0 0.12500096E+03</rscale>
<asrwt>0</asrwt>
<pdfrwt beam="1">  1       21 0.40399280E-01 0.12500096E+03</pdfrwt>
<pdfrwt beam="2">  1       21 0.22885815E-02 0.12500096E+03</pdfrwt>
<totfact> 0.57380579E+06</totfact>
</mgrwt>
</event>
<event>
 9    1  0.4458519E-002  0.1250392E+03  0.7818608E-02  0.1235008E+00
         21   -1    0    0  503  502  0.00000000000E+00  0.00000000000E+00  0.45858906402E+02  0.45858906402E+02  0.00000000000E+00 0.  1.
         21   -1    0    0  502  503 -0.00000000000E+00 -0.00000000000E+00 -0.85233172397E+02  0.85233172397E+02  0.00000000000E+00 0.  1.
         25    2    1    2    0    0  0.00000000000E+00  0.00000000000E+00 -0.39374265995E+02  0.13109207880E+03  0.12503919506E+03 0.  0.
    9000006    2    3    3    0    0 -0.39980262442E+01  0.58770751503E+01 -0.28467940027E+01  0.60487474909E+02  0.60000884648E+02 0.  0.
    9000007    2    3    3    0    0  0.39980262442E+01 -0.58770751503E+01 -0.36527471992E+02  0.70604603891E+02  0.60001913755E+02 0.  0.
          5    1    4    4  501    0 -0.19365877196E+02 -0.14404436464E+02 -0.18024885921E+02  0.30487891070E+02  0.47000000000E+01 0.  1.
         -5    1    4    4    0  501  0.15367850952E+02  0.20281511614E+02  0.15178091918E+02  0.29999583839E+02  0.47000000000E+01 0.  1.
         12    1    5    5    0    0 -0.12364741594E+02  0.19561048462E+02  0.50093637126E-01  0.23141390645E+02  0.00000000000E+00 0. -1.
        -12    1    5    5    0    0  0.16362767838E+02 -0.25438123612E+02 -0.36577565629E+02  0.47463213246E+02  0.00000000000E+00 0. -1.
<mgrwt>
<rscale>  0 0.12503920E+03</rscale>
<asrwt>0</asrwt>
<pdfrwt beam="1">  1       21 0.70552164E-02 0.12503920E+03</pdfrwt>
<pdfrwt beam="2">  1       21 0.13112796E-01 0.12503920E+03</pdfrwt>
<totfact> 0.73145100E+06</totfact>
</mgrwt>
</event>
<event>
 9    1  0.4458519E-002  0.1249980E+03  0.7818608E-02  0.1235072E+00
         21   -1    0    0  503  502  0.00000000000E+00  0.00000000000E+00  0.18319543871E+02  0.18319543871E+02  0.00000000000E+00 0. -1.
         21   -1    0    0  502  503 -0.00000000000E+00 -0.00000000000E+00 -0.21322188039E+03  0.21322188039E+03  0.00000000000E+00 0. -1.
         25    2    1    2    0    0  0.71054273576E-14  0.00000000000E+00 -0.19490233652E+03  0.23154142426E+03  0.12499804146E+03 0.  0.
    9000006    2    3    3    0    0  0.95714840859E+01  0.14406822432E+02 -0.10231471159E+03  0.11986439927E+03  0.60000034710E+02 0.  0.
    9000007    2    3    3    0    0 -0.95714840859E+01 -0.14406822432E+02 -0.92587624936E+02  0.11167702499E+03  0.60000998158E+02 0.  0.
          5    1    4    4  501    0 -0.19228731804E+02  0.13419554693E+01 -0.10097598599E+02  0.22261996063E+02  0.47000000000E+01 0. -1.
         -5    1    4    4    0  501  0.28800215889E+02  0.13064866963E+02 -0.92217112987E+02  0.97602403207E+02  0.47000000000E+01 0. -1.
         12    1    5    5    0    0  0.24009159801E+02 -0.13598873111E+02 -0.30823948198E+02  0.41370096528E+02  0.00000000000E+00 0.  1.
        -12    1    5    5    0    0 -0.33580643887E+02 -0.80794932089E+00 -0.61763676738E+02  0.70306928465E+02  0.00000000000E+00 0.  1.
<mgrwt>
<rscale>  0 0.12499804E+03</rscale>
<asrwt>0</asrwt>
<pdfrwt beam="1">  1       21 0.28183913E-02 0.12499804E+03</pdfrwt>
<pdfrwt beam="2">  1       21 0.32803367E-01 0.12499804E+03</pdfrwt>
<totfact> 0.61663962E+06</totfact>
</mgrwt>
</event>
<event>
 9    1  0.4458519E-002  0.1250056E+03  0.7818608E-02  0.1235060E+00
         21   -1    0    0  503  502  0.00000000000E+00  0.00000000000E+00  0.26394715651E+02  0.26394715651E+02  0.00000000000E+00 0.  1.
         21   -1    0    0  502  503 -0.00000000000E+00 -0.00000000000E+00 -0.14800699853E+03  0.14800699853E+03  0.00000000000E+00 0.  1.
         25    2    1    2    0    0  0.00000000000E+00  0.35527136788E-14 -0.12161228288E+03  0.17440171418E+03  0.12500564212E+03 0.  0.
    9000006    2    3    3    0    0 -0.14008049573E+02  0.24026970090E+01 -0.75085539329E+02  0.97157236701E+02  0.59997433456E+02 0.  0.
    9000007    2    3    3    0    0  0.14008049573E+02 -0.24026970090E+01 -0.46526743553E+02  0.77244477484E+02  0.59999775252E+02 0.  0.
          5    1    4    4  501    0 -0.24369413355E+02 -0.22485228171E+02 -0.48999789446E+02  0.59350848006E+02  0.47000000000E+01 0.  1.
         -5    1    4    4    0  501  0.10361363782E+02  0.24887925180E+02 -0.26085749882E+02  0.37806388695E+02  0.47000000000E+01 0.  1.
         12    1    5    5    0    0  0.32464614424E+02  0.82563078443E+01 -0.44691827425E+02  0.55852280594E+02  0.00000000000E+00 0. -1.
        -12    1    5    5    0    0 -0.18456564851E+02 -0.10659004853E+02 -0.18349161281E+01  0.21392196890E+02  0.00000000000E+00 0. -1.
<mgrwt>
<rscale>  0 0.12500564E+03</rscale>
<asrwt>0</asrwt>
<pdfrwt beam="1">  1       21 0.40607255E-02 0.12500564E+03</pdfrwt>
<pdfrwt beam="2">  1       21 0.22770307E-01 0.12500564E+03</pdfrwt>
<totfact> 0.67789924E+06</totfact>
</mgrwt>
</event>
<event>
 9    1  0.4458519E-002  0.1250063E+03  0.7818608E-02  0.1235059E+00
         21   -1    0    0  503  502  0.00000000000E+00  0.00000000000E+00  0.79736126377E+01  0.79736126377E+01  0.00000000000E+00 0. -1.
         21   -1    0    0  502  503 -0.00000000000E+00 -0.00000000000E+00 -0.48994638490E+03  0.48994638490E+03  0.00000000000E+00 0. -1.
         25    2    1    2    0    0  0.00000000000E+00  0.17763568394E-14 -0.48197277227E+03  0.49791999754E+03  0.12500628283E+03 0.  0.
    9000006    2    3    3    0    0 -0.66466170077E+01  0.11460971041E+02 -0.19540974203E+03  0.20484255455E+03  0.59999779170E+02 0.  0.
    9000007    2    3    3    0    0  0.66466170077E+01 -0.11460971041E+02 -0.28656303023E+03  0.29307744299E+03  0.60004049165E+02 0.  0.
          5    1    4    4  501    0 -0.25534376808E+02 -0.69917006769E+01 -0.14755111212E+03  0.14998102868E+03  0.47000000000E+01 0.  1.
         -5    1    4    4    0  501  0.18887759800E+02  0.18452671718E+02 -0.47858629916E+02  0.54861525874E+02  0.47000000000E+01 0.  1.
         12    1    5    5    0    0 -0.13064984592E+02 -0.15707563503E+02 -0.33684494659E+02  0.39396275891E+02  0.00000000000E+00 0. -1.
        -12    1    5    5    0    0  0.19711601599E+02  0.42465924625E+01 -0.25287853557E+03  0.25368116710E+03  0.00000000000E+00 0. -1.
<mgrwt>
<rscale>  0 0.12500628E+03</rscale>
<asrwt>0</asrwt>
<pdfrwt beam="1">  1       21 0.12267095E-02 0.12500628E+03</pdfrwt>
<pdfrwt beam="2">  1       21 0.75376376E-01 0.12500628E+03</pdfrwt>
<totfact> 0.42150501E+06</totfact>
</mgrwt>
</event>
<event>
 9    1  0.4458519E-002  0.1250133E+03  0.7818608E-02  0.1235048E+00
         21   -1    0    0  503  502  0.00000000000E+00  0.00000000000E+00  0.72922191229E+02  0.72922191229E+02  0.00000000000E+00 0.  1.
         21   -1    0    0  502  503 -0.00000000000E+00 -0.00000000000E+00 -0.53578809767E+02  0.53578809767E+02  0.00000000000E+00 0.  1.
         25    2    1    2    0    0  0.17763568394E-14  0.00000000000E+00  0.19343381462E+02  0.12650100100E+03  0.12501334667E+03 0.  0.
    9000006    2    3    3    0    0 -0.44336455681E+01  0.99198667074E+01 -0.42442791550E+01  0.61121873978E+02  0.59998405017E+02 0.  0.
    9000007    2    3    3    0    0  0.44336455681E+01 -0.99198667074E+01  0.23587660617E+02  0.65379127018E+02  0.59999929564E+02 0.  0.
          5    1    4    4  501    0 -0.18666358081E+02  0.22954152328E+02 -0.19785670877E+02  0.35901097548E+02  0.47000000000E+01 0.  1.
         -5    1    4    4    0  501  0.14232712512E+02 -0.13034285620E+02  0.15541391722E+02  0.25220776430E+02  0.47000000000E+01 0.  1.
         12    1    5    5    0    0 -0.39017574043E+01 -0.16101992180E+02  0.41495933373E+02  0.44681208013E+02  0.00000000000E+00 0.  1.
        -12    1    5    5    0    0  0.83354029724E+01  0.61821254723E+01 -0.17908272755E+02  0.20697919005E+02  0.00000000000E+00 0.  1.
<mgrwt>
<rscale>  0 0.12501335E+03</rscale>
<asrwt>0</asrwt>
<pdfrwt beam="1">  1       21 0.11218799E-01 0.12501335E+03</pdfrwt>
<pdfrwt beam="2">  1       21 0.82428938E-02 0.12501335E+03</pdfrwt>
<totfact> 0.73812091E+06</totfact>
</mgrwt>
</event>
<event>
 9    1  0.4458519E-002  0.1249892E+03  0.7818608E-02  0.1235086E+00
         21   -1    0    0  503  502  0.00000000000E+00  0.00000000000E+00  0.66003986285E+02  0.66003986285E+02  0.00000000000E+00 0.  1.
         21   -1    0    0  502  503 -0.00000000000E+00 -0.00000000000E+00 -0.59171783251E+02  0.59171783251E+02  0.00000000000E+00 0.  1.
         25    2    1    2    0    0 -0.17763568394E-14 -0.17763568394E-14  0.68322030336E+01  0.12517576954E+03  0.12498917665E+03 0.  0.
    9000006    2    3    3    0    0  0.15394487326E+02 -0.80224163771E+01  0.13598174392E+01  0.62475898011E+02  0.60000327701E+02 0.  0.
    9000007    2    3    3    0    0 -0.15394487326E+02  0.80224163771E+01  0.54723855944E+01  0.62699871525E+02  0.59999812338E+02 0.  0.
          5    1    4    4  501    0 -0.20207266591E+02  0.44338287183E+01  0.10065791611E+02  0.23481963737E+02  0.47000000000E+01 0.  1.
         -5    1    4    4    0  501  0.35601753918E+02 -0.12456245095E+02 -0.87059741713E+01  0.38993934274E+02  0.47000000000E+01 0.  1.
         12    1    5    5    0    0 -0.17949901457E+02  0.22216923145E+02  0.25317349559E+02  0.38167510071E+02  0.00000000000E+00 0.  1.
        -12    1    5    5    0    0  0.25554141305E+01 -0.14194506768E+02 -0.19844963965E+02  0.24532361454E+02  0.00000000000E+00 0.  1.
<mgrwt>
<rscale>  0 0.12498918E+03</rscale>
<asrwt>0</asrwt>
<pdfrwt beam="1">  1       21 0.10154459E-01 0.12498918E+03</pdfrwt>
<pdfrwt beam="2">  1       21 0.91033513E-02 0.12498918E+03</pdfrwt>
<totfact> 0.74040329E+06</totfact>
</mgrwt>
</event>
<event>
 9    1  0.4458519E-002  0.1250091E+03  0.7818608E-02  0.1235055E+00
         21   -1    0    0  503  502  0.00000000000E+00  0.00000000000E+00  0.13926811605E+02  0.13926811605E+02  0.00000000000E+00 0.  1.
         21   -1    0    0  502  503 -0.00000000000E+00 -0.00000000000E+00 -0.28052484203E+03  0.28052484203E+03  0.00000000000E+00 0.  1.
         25    2    1    2    0    0 -0.35527136788E-14  0.00000000000E+00 -0.26659803042E+03  0.29445165363E+03  0.12500906568E+03 0.  0.
    9000006    2    3    3    0    0  0.60110405748E+01  0.14216006080E+02 -0.15281763691E+03  0.16489838381E+03  0.60000161644E+02 0.  0.
    9000007    2    3    3    0    0 -0.60110405748E+01 -0.14216006080E+02 -0.11378039352E+03  0.12955326982E+03  0.59998702770E+02 0.  0.
          5    1    4    4  501    0 -0.25557917355E+02  0.10732566289E+02 -0.52307761202E+02  0.59385073888E+02  0.47000000000E+01 0.  1.
         -5    1    4    4    0  501  0.31568957930E+02  0.34834397908E+01 -0.10050987570E+03  0.10551330993E+03  0.47000000000E+01 0.  1.
         12    1    5    5    0    0 -0.24708603254E+02  0.98394247284E+01 -0.28442789643E+02  0.38939974787E+02  0.00000000000E+00 0.  1.
        -12    1    5    5    0    0  0.18697562679E+02 -0.24055430808E+02 -0.85337603875E+02  0.90613295032E+02  0.00000000000E+00 0.  1.
<mgrwt>
<rscale>  0 0.12500907E+03</rscale>
<asrwt>0</asrwt>
<pdfrwt beam="1">  1       21 0.21425863E-02 0.12500907E+03</pdfrwt>
<pdfrwt beam="2">  1       21 0.43157671E-01 0.12500907E+03</pdfrwt>
<totfact> 0.55907696E+06</totfact>
</mgrwt>
</event>
<event>
 9    1  0.4458519E-002  0.1249969E+03  0.7818608E-02  0.1235074E+00
         21   -1    0    0  503  502  0.00000000000E+00  0.00000000000E+00  0.87886899887E+02  0.87886899887E+02  0.00000000000E+00 0. -1.
         21   -1    0    0  502  503 -0.00000000000E+00 -0.00000000000E+00 -0.44444140843E+02  0.44444140843E+02  0.00000000000E+00 0. -1.
         25    2    1    2    0    0  0.00000000000E+00  0.26645352591E-14  0.43442759044E+02  0.13233104073E+03  0.12499692407E+03 0.  0.
    9000006    2    3    3    0    0 -0.71652673221E+01  0.77432582178E+01  0.36498271240E+02  0.71015208256E+02  0.59997807431E+02 0.  0.
    9000007    2    3    3    0    0  0.71652673221E+01 -0.77432582178E+01  0.69444878034E+01  0.61315832473E+02  0.60000885805E+02 0.  0.
          5    1    4    4  501    0  0.18582980237E+02  0.10075287126E+02 -0.46916282870E+01  0.22157164556E+02  0.47000000000E+01 0. -1.
         -5    1    4    4    0  501 -0.25748247559E+02 -0.23320289085E+01  0.41189899527E+02  0.48858043701E+02  0.47000000000E+01 0. -1.
         12    1    5    5    0    0  0.17464254657E+01 -0.22215790675E+02 -0.20202262351E+02  0.30078609697E+02  0.00000000000E+00 0. -1.
        -12    1    5    5    0    0  0.54188418564E+01  0.14472532458E+02  0.27146750154E+02  0.31237222776E+02  0.00000000000E+00 0. -1.
<mgrwt>
<rscale>  0 0.12499692E+03</rscale>
<asrwt>0</asrwt>
<pdfrwt beam="1">  1       21 0.13521061E-01 0.12499692E+03</pdfrwt>
<pdfrwt beam="2">  1       21 0.68375601E-02 0.12499692E+03</pdfrwt>
<totfact> 0.73057592E+06</totfact>
</mgrwt>
</event>
<event>
 9    1  0.4458519E-002  0.1250003E+03  0.7818608E-02  0.1235069E+00
         21   -1    0    0  503  502  0.00000000000E+00  0.00000000000E+00  0.38281327243E+03  0.38281327243E+03  0.00000000000E+00 0. -1.
         21   -1    0    0  502  503 -0.00000000000E+00 -0.00000000000E+00 -0.10204114457E+02  0.10204114457E+02  0.00000000000E+00 0. -1.
         25    2    1    2    0    0 -0.44408920985E-15  0.00000000000E+00  0.37260915798E+03  0.39301738689E+03  0.12500032716E+03 0.  0.
    9000006    2    3    3    0    0 -0.16633287050E+01 -0.14620812216E+02  0.21610389375E+03  0.22476040162E+03  0.59998420248E+02 0.  0.
    9000007    2    3    3    0    0  0.16633287050E+01  0.14620812216E+02  0.15650526423E+03  0.16825698527E+03  0.59999837900E+02 0.  0.
          5    1    4    4  501    0 -0.18753761630E+02  0.90373012536E+00  0.18358491604E+03  0.18460236104E+03  0.47000000000E+01 0.  1.
         -5    1    4    4    0  501  0.17090432925E+02 -0.15524542341E+02  0.32518977710E+02  0.40158040587E+02  0.47000000000E+01 0.  1.
         12    1    5    5    0    0  0.52678673739E+01  0.19475116876E+02  0.11693081428E+02  0.23318635407E+02  0.00000000000E+00 0.  1.
        -12    1    5    5    0    0 -0.36045386689E+01 -0.48543046599E+01  0.14481218280E+03  0.14493834986E+03  0.00000000000E+00 0.  1.
<mgrwt>
<rscale>  0 0.12500033E+03</rscale>
<asrwt>0</asrwt>
<pdfrwt beam="1">  1       21 0.58894338E-01 0.12500033E+03</pdfrwt>
<pdfrwt beam="2">  1       21 0.15698641E-02 0.12500033E+03</pdfrwt>
<totfact> 0.48507582E+06</totfact>
</mgrwt>
</event>
<event>
 9    1  0.4458519E-002  0.1250068E+03  0.7818608E-02  0.1235059E+00
         21   -1    0    0  503  502  0.00000000000E+00  0.00000000000E+00  0.58615952489E+03  0.58615952489E+03  0.00000000000E+00 0.  1.
         21   -1    0    0  502  503 -0.00000000000E+00 -0.00000000000E+00 -0.66648701140E+01  0.66648701140E+01  0.00000000000E+00 0.  1.
         25    2    1    2    0    0  0.88817841970E-15  0.35527136788E-14  0.57949465477E+03  0.59282439500E+03  0.12500683340E+03 0.  0.
    9000006    2    3    3    0    0 -0.21755153594E+01 -0.15158425277E+02  0.33018172105E+03  0.33593824391E+03  0.60000200731E+02 0.  0.
    9000007    2    3    3    0    0  0.21755153594E+01  0.15158425277E+02  0.24931293373E+03  0.25688615109E+03  0.59992040908E+02 0.  0.
          5    1    4    4  501    0  0.28494263138E+02 -0.82090009284E+01  0.17008636462E+03  0.17271587118E+03  0.47000000000E+01 0.  1.
         -5    1    4    4    0  501 -0.30669778498E+02 -0.69494243483E+01  0.16009535643E+03  0.16322237274E+03  0.47000000000E+01 0.  1.
         12    1    5    5    0    0 -0.60326347163E+01 -0.20737738843E+02  0.13697462316E+03  0.13866684494E+03  0.00000000000E+00 0.  1.
        -12    1    5    5    0    0  0.82081500757E+01  0.35896164120E+02  0.11233831057E+03  0.11821930615E+03  0.00000000000E+00 0.  1.
<mgrwt>
<rscale>  0 0.12500683E+03</rscale>
<asrwt>0</asrwt>
<pdfrwt beam="1">  1       21 0.90178348E-01 0.12500683E+03</pdfrwt>
<pdfrwt beam="2">  1       21 0.10253651E-02 0.12500683E+03</pdfrwt>
<totfact> 0.37412822E+06</totfact>
</mgrwt>
</event>
<event>
 9    1  0.4458519E-002  0.1249987E+03  0.7818608E-02  0.1235071E+00
         21   -1    0    0  503  502  0.00000000000E+00  0.00000000000E+00  0.12293647247E+03  0.12293647247E+03  0.00000000000E+00 0. -1.
         21   -1    0    0  502  503 -0.00000000000E+00 -0.00000000000E+00 -0.31773903525E+02  0.31773903525E+02  0.00000000000E+00 0. -1.
         25    2    1    2    0    0  0.26645352591E-14  0.00000000000E+00  0.91162568947E+02  0.15471037600E+03  0.12499874585E+03 0.  0.
    9000006    2    3    3    0    0  0.55966228841E+01 -0.67516322617E+01  0.64319294526E+02  0.88395385490E+02  0.59998881670E+02 0.  0.
    9000007    2    3    3    0    0 -0.55966228841E+01  0.67516322617E+01  0.26843274421E+02  0.66314990507E+02  0.60001748795E+02 0.  0.
          5    1    4    4  501    0 -0.26268321293E+02 -0.94092885934E+01  0.28852466980E+02  0.40411808500E+02  0.47000000000E+01 0.  1.
         -5    1    4    4    0  501  0.31864944177E+02  0.26576563317E+01  0.35466827546E+02  0.47983576990E+02  0.47000000000E+01 0.  1.
         12    1    5    5    0    0  0.79075785983E+01  0.86570842853E+01  0.43347415385E+02  0.44905159260E+02  0.00000000000E+00 0. -1.
        -12    1    5    5    0    0 -0.13504201482E+02 -0.19054520236E+01 -0.16504140964E+02  0.21409831247E+02  0.00000000000E+00 0. -1.
<mgrwt>
<rscale>  0 0.12499875E+03</rscale>
<asrwt>0</asrwt>
<pdfrwt beam="1">  1       21 0.18913303E-01 0.12499875E+03</pdfrwt>
<pdfrwt beam="2">  1       21 0.48882929E-02 0.12499875E+03</pdfrwt>
<totfact> 0.70173912E+06</totfact>
</mgrwt>
</event>
<event>
 9    1  0.4458519E-002  0.1249996E+03  0.7818608E-02  0.1235070E+00
         21   -1    0    0  503  502  0.00000000000E+00  0.00000000000E+00  0.19731870923E+02  0.19731870923E+02  0.00000000000E+00 0.  1.
         21   -1    0    0  502  503 -0.00000000000E+00 -0.00000000000E+00 -0.19796538742E+03  0.19796538742E+03  0.00000000000E+00 0.  1.
         25    2    1    2    0    0 -0.17763568394E-14  0.17763568394E-14 -0.17823351650E+03  0.21769725835E+03  0.12499963955E+03 0.  0.
    9000006    2    3    3    0    0 -0.81364546695E+01 -0.70375246303E+00 -0.11607799551E+03  0.13092286496E+03  0.59999986375E+02 0.  0.
    9000007    2    3    3    0    0  0.81364546695E+01  0.70375246303E+00 -0.62155520991E+02  0.86774393389E+02  0.59998244943E+02 0.  0.
          5    1    4    4  501    0  0.96052419426E+01 -0.12948135125E+02 -0.47813441015E+01  0.17460416014E+02  0.47000000000E+01 0. -1.
         -5    1    4    4    0  501 -0.17741696612E+02  0.12244382661E+02 -0.11129665141E+03  0.11346244894E+03  0.47000000000E+01 0. -1.
         12    1    5    5    0    0 -0.14306630402E+02 -0.83763965872E+01 -0.60249908688E+02  0.62489160581E+02  0.00000000000E+00 0. -1.
        -12    1    5    5    0    0  0.22443085071E+02  0.90801490502E+01 -0.19056123033E+01  0.24285232808E+02  0.00000000000E+00 0. -1.
<mgrwt>
<rscale>  0 0.12499964E+03</rscale>
<asrwt>0</asrwt>
<pdfrwt beam="1">  1       21 0.30356726E-02 0.12499964E+03</pdfrwt>
<pdfrwt beam="2">  1       21 0.30456212E-01 0.12499964E+03</pdfrwt>
<totfact> 0.63059260E+06</totfact>
</mgrwt>
</event>
<event>
 9    1  0.4458519E-002  0.1249991E+03  0.7818608E-02  0.1235071E+00
         21   -1    0    0  503  502  0.00000000000E+00  0.00000000000E+00  0.37071826379E+02  0.37071826379E+02  0.00000000000E+00 0.  1.
         21   -1    0    0  502  503 -0.00000000000E+00 -0.00000000000E+00 -0.10536824928E+03  0.10536824928E+03  0.00000000000E+00 0.  1.
         25    2    1    2    0    0  0.00000000000E+00  0.00000000000E+00 -0.68296422898E+02  0.14244007566E+03  0.12499909509E+03 0.  0.
    9000006    2    3    3    0    0  0.11614643345E+02  0.51162420581E+00 -0.19244667999E+02  0.64074809480E+02  0.60000518865E+02 0.  0.
    9000007    2    3    3    0    0 -0.11614643345E+02 -0.51162420581E+00 -0.49051754899E+02  0.78365266176E+02  0.59998988199E+02 0.  0.
          5    1    4    4  501    0 -0.82058854177E+01  0.25032121031E+02  0.15258966004E+00  0.26759239945E+02  0.47000000000E+01 0.  1.
         -5    1    4    4    0  501  0.19820528763E+02 -0.24520496826E+02 -0.19397257659E+02  0.37315569535E+02  0.47000000000E+01 0.  1.
         12    1    5    5    0    0 -0.18146972515E+02  0.19530176923E+02 -0.50636974416E+02  0.57226249222E+02  0.00000000000E+00 0.  1.
        -12    1    5    5    0    0  0.65323291692E+01 -0.20041801129E+02  0.15852195170E+01  0.21139016954E+02  0.00000000000E+00 0.  1.
<mgrwt>
<rscale>  0 0.12499910E+03</rscale>
<asrwt>0</asrwt>
<pdfrwt beam="1">  1       21 0.57033580E-02 0.12499910E+03</pdfrwt>
<pdfrwt beam="2">  1       21 0.16210500E-01 0.12499910E+03</pdfrwt>
<totfact> 0.71723994E+06</totfact>
</mgrwt>
</event>
<event>
 9    1  0.4458519E-002  0.1250001E+03  0.7818608E-02  0.1235069E+00
         21   -1    0    0  503  502  0.00000000000E+00  0.00000000000E+00  0.90949733237E+03  0.90949733237E+03  0.00000000000E+00 0. -1.
         21   -1    0    0  502  503 -0.00000000000E+00 -0.00000000000E+00 -0.42949614307E+01  0.42949614307E+01  0.00000000000E+00 0. -1.
         25    2    1    2    0    0  0.00000000000E+00  0.00000000000E+00  0.90520237094E+03  0.91379229380E+03  0.12500009542E+03 0.  0.
    9000006    2    3    3    0    0  0.20899202113E+01 -0.27554901343E+01  0.57800711456E+03  0.58112319872E+03  0.59999892673E+02 0.  0.
    9000007    2    3    3    0    0 -0.20899202113E+01  0.27554901343E+01  0.32719525638E+03  0.33266909508E+03  0.60000254414E+02 0.  0.
          5    1    4    4  501    0 -0.17387933022E+02 -0.15982601282E+02  0.11500653678E+03  0.11750054153E+03  0.47000000000E+01 0. -1.
         -5    1    4    4    0  501  0.19477853233E+02  0.13227111147E+02  0.46300057777E+03  0.46362265719E+03  0.47000000000E+01 0. -1.
         12    1    5    5    0    0  0.95027226837E+01  0.29440841177E+02  0.17655558342E+03  0.17924547109E+03  0.00000000000E+00 0.  1.
        -12    1    5    5    0    0 -0.11592642895E+02 -0.26685351043E+02  0.15063967296E+03  0.15342362399E+03  0.00000000000E+00 0.  1.
<mgrwt>
<rscale>  0 0.12500010E+03</rscale>
<asrwt>0</asrwt>
<pdfrwt beam="1">  1       21 0.13992251E+00 0.12500010E+03</pdfrwt>
<pdfrwt beam="2">  1       21 0.66076402E-03 0.12500010E+03</pdfrwt>
<totfact> 0.25906380E+06</totfact>
</mgrwt>
</event>
<event>
 9    1  0.4458519E-002  0.1249998E+03  0.7818608E-02  0.1235070E+00
         21   -1    0    0  503  502  0.00000000000E+00  0.00000000000E+00  0.62265432556E+02  0.62265432556E+02  0.00000000000E+00 0.  1.
         21   -1    0    0  502  503 -0.00000000000E+00 -0.00000000000E+00 -0.62735261540E+02  0.62735261540E+02  0.00000000000E+00 0.  1.
         25    2    1    2    0    0  0.00000000000E+00  0.35527136788E-14 -0.46982898423E+00  0.12500069410E+03  0.12499981114E+03 0.  0.
    9000006    2    3    3    0    0  0.67671534461E+00 -0.17481789441E+02 -0.53220473731E+00  0.62502307577E+02  0.60001535854E+02 0.  0.
    9000007    2    3    3    0    0 -0.67671534461E+00  0.17481789441E+02  0.62375753083E-01  0.62498386520E+02  0.59999779342E+02 0.  0.
          5    1    4    4  501    0 -0.23981846473E-01  0.22116677130E+02  0.25362304075E+00  0.22611994760E+02  0.47000000000E+01 0.  1.
         -5    1    4    4    0  501  0.70069719108E+00 -0.39598466571E+02 -0.78582777807E+00  0.39890312817E+02  0.47000000000E+01 0.  1.
         12    1    5    5    0    0  0.23883308410E+01  0.46328891624E+01 -0.29585403465E+02  0.30041036673E+02  0.00000000000E+00 0.  1.
        -12    1    5    5    0    0 -0.30650461857E+01  0.12848900279E+02  0.29647779218E+02  0.32457349847E+02  0.00000000000E+00 0.  1.
<mgrwt>
<rscale>  0 0.12499981E+03</rscale>
<asrwt>0</asrwt>
<pdfrwt beam="1">  1       21 0.95792974E-02 0.12499981E+03</pdfrwt>
<pdfrwt beam="2">  1       21 0.96515787E-02 0.12499981E+03</pdfrwt>
<totfact> 0.74043845E+06</totfact>
</mgrwt>
</event>
<event>
 9    1  0.4458519E-002  0.1250004E+03  0.7818608E-02  0.1235069E+00
         21   -1    0    0  503  502  0.00000000000E+00  0.00000000000E+00  0.60181789510E+01  0.60181789510E+01  0.00000000000E+00 0. -1.
         21   -1    0    0  502  503 -0.00000000000E+00 -0.00000000000E+00 -0.64907893500E+03  0.64907893500E+03  0.00000000000E+00 0. -1.
         25    2    1    2    0    0  0.00000000000E+00 -0.17763568394E-14 -0.64306075605E+03  0.65509711395E+03  0.12500037095E+03 0.  0.
    9000006    2    3    3    0    0 -0.23309895706E+01  0.13256607030E+02 -0.26291486261E+03  0.27001000579E+03  0.60000059188E+02 0.  0.
    9000007    2    3    3    0    0  0.23309895706E+01 -0.13256607030E+02 -0.38014589344E+03  0.38508710816E+03  0.60000078597E+02 0.  0.
          5    1    4    4  501    0 -0.44492190306E-01 -0.20922555928E+02 -0.16026355370E+03  0.16169184262E+03  0.47000000000E+01 0. -1.
         -5    1    4    4    0  501 -0.22864973803E+01  0.34179162958E+02 -0.10265130891E+03  0.10831816316E+03  0.47000000000E+01 0. -1.
         12    1    5    5    0    0 -0.17707544831E+02 -0.82075701311E+01 -0.33347761669E+03  0.33404826325E+03  0.00000000000E+00 0. -1.
        -12    1    5    5    0    0  0.20038534402E+02 -0.50490368991E+01 -0.46668276751E+02  0.51038844908E+02  0.00000000000E+00 0. -1.
<mgrwt>
<rscale>  0 0.12500037E+03</rscale>
<asrwt>0</asrwt>
<pdfrwt beam="1">  1       21 0.92587452E-03 0.12500037E+03</pdfrwt>
<pdfrwt beam="2">  1       21 0.99858208E-01 0.12500037E+03</pdfrwt>
<totfact> 0.34713137E+06</totfact>
</mgrwt>
</event>
<event>
 9    1  0.4458519E-002  0.1250018E+03  0.7818608E-02  0.1235066E+00
         21   -1    0    0  503  502  0.00000000000E+00  0.00000000000E+00  0.13951811133E+02  0.13951811133E+02  0.00000000000E+00 0.  1.
         21   -1    0    0  502  503 -0.00000000000E+00 -0.00000000000E+00 -0.27998978787E+03  0.27998978787E+03  0.00000000000E+00 0.  1.
         25    2    1    2    0    0 -0.17763568394E-14  0.00000000000E+00 -0.26603797674E+03  0.29394159900E+03  0.12500183422E+03 0.  0.
    9000006    2    3    3    0    0 -0.43050649325E+01  0.16710261467E+02 -0.12614407482E+03  0.14074850022E+03  0.60000385667E+02 0.  0.
    9000007    2    3    3    0    0  0.43050649325E+01 -0.16710261467E+02 -0.13989390192E+03  0.15319309878E+03  0.60000460815E+02 0.  0.
          5    1    4    4  501    0  0.25610331763E+02  0.18150348137E+02 -0.72212100473E+02  0.78879665854E+02  0.47000000000E+01 0.  1.
         -5    1    4    4    0  501 -0.29915396696E+02 -0.14400866695E+01 -0.53931974345E+02  0.61868834367E+02  0.47000000000E+01 0.  1.
         12    1    5    5    0    0  0.85168036498E-01 -0.18348116096E+02 -0.14512219995E+03  0.14627752232E+03  0.00000000000E+00 0.  1.
        -12    1    5    5    0    0  0.42198968960E+01  0.16378546287E+01  0.52282980268E+01  0.69155764658E+01  0.00000000000E+00 0.  1.
<mgrwt>
<rscale>  0 0.12500183E+03</rscale>
<asrwt>0</asrwt>
<pdfrwt beam="1">  1       21 0.21464324E-02 0.12500183E+03</pdfrwt>
<pdfrwt beam="2">  1       21 0.43075353E-01 0.12500183E+03</pdfrwt>
<totfact> 0.55960857E+06</totfact>
</mgrwt>
</event>
<event>
 8    1  0.4458519E-002  0.1248789E+03  0.7818608E-02  0.1235259E+00
         21   -1    0    0  503  502  0.00000000000E+00  0.00000000000E+00  0.11014092055E+02  0.11014092055E+02  0.00000000000E+00 0.  1.
         21   -1    0    0  502  503 -0.00000000000E+00 -0.00000000000E+00 -0.35397245718E+03  0.35397245718E+03  0.00000000000E+00 0.  1.
    9000006    2    1    2    0    0 -0.28970041922E+01  0.16761184692E+02 -0.16250693646E+03  0.17406252068E+03  0.59999389677E+02 0.  0.
    9000007    2    1    2    0    0  0.28970041922E+01 -0.16761184692E+02 -0.18045142867E+03  0.19092402856E+03  0.59999471893E+02 0.  0.
          5    1    3    3  501    0 -0.88876921062E-03 -0.20182666174E+02 -0.91636988340E+02  0.93950878903E+02  0.47000000000E+01 0. -1.
         -5    1    3    3    0  501 -0.28961154230E+01  0.36943850866E+02 -0.70869948120E+02  0.80111641775E+02  0.47000000000E+01 0. -1.
         12    1    4    4    0    0  0.16352078590E+02  0.13848329803E+02 -0.11947981890E+03  0.12138613528E+03  0.00000000000E+00 0. -1.
        -12    1    4    4    0    0 -0.13455074398E+02 -0.30609514495E+02 -0.60971609762E+02  0.69537893279E+02  0.00000000000E+00 0. -1.
<mgrwt>
<rscale>  0 0.12487890E+03</rscale>
<asrwt>0</asrwt>
<pdfrwt beam="1">  1       21 0.16944759E-02 0.12487890E+03</pdfrwt>
<pdfrwt beam="2">  1       21 0.54457293E-01 0.12487890E+03</pdfrwt>
<totfact> 0.50603557E+06</totfact>
</mgrwt>
</event>
<event>
 9    1  0.4458519E-002  0.1250038E+03  0.7818608E-02  0.1235063E+00
         21   -1    0    0  503  502  0.00000000000E+00  0.00000000000E+00  0.10802377764E+02  0.10802377764E+02  0.00000000000E+00 0.  1.
         21   -1    0    0  502  503 -0.00000000000E+00 -0.00000000000E+00 -0.36163237566E+03  0.36163237566E+03  0.00000000000E+00 0.  1.
         25    2    1    2    0    0 -0.88817841970E-15 -0.17763568394E-14 -0.35082999789E+03  0.37243475342E+03  0.12500383248E+03 0.  0.
    9000006    2    3    3    0    0  0.51958259615E+01  0.14053484057E+02 -0.14845395919E+03  0.16082021873E+03  0.60000564425E+02 0.  0.
    9000007    2    3    3    0    0 -0.51958259615E+01 -0.14053484057E+02 -0.20237603870E+03  0.21161453469E+03  0.60001276903E+02 0.  0.
          5    1    4    4  501    0 -0.24761255954E+02  0.99393635769E+01 -0.99208520504E+02  0.10284129173E+03  0.47000000000E+01 0.  1.
         -5    1    4    4    0  501  0.29957081916E+02  0.41141204804E+01 -0.49245438687E+02  0.57978926997E+02  0.47000000000E+01 0.  1.
         12    1    5    5    0    0 -0.69299610783E+01 -0.28288839647E+02 -0.45106000814E+02  0.53692030307E+02  0.00000000000E+00 0.  1.
        -12    1    5    5    0    0  0.17341351168E+01  0.14235355589E+02 -0.15727003789E+03  0.15792250438E+03  0.00000000000E+00 0.  1.
<mgrwt>
<rscale>  0 0.12500383E+03</rscale>
<asrwt>0</asrwt>
<pdfrwt beam="1">  1       21 0.16619041E-02 0.12500383E+03</pdfrwt>
<pdfrwt beam="2">  1       21 0.55635757E-01 0.12500383E+03</pdfrwt>
<totfact> 0.49918261E+06</totfact>
</mgrwt>
</event>
<event>
 9    1  0.4458519E-002  0.1250022E+03  0.7818608E-02  0.1235066E+00
         21   -1    0    0  503  502  0.00000000000E+00  0.00000000000E+00  0.12589197756E+03  0.12589197756E+03  0.00000000000E+00 0.  1.
         21   -1    0    0  502  503 -0.00000000000E+00 -0.00000000000E+00 -0.31029698655E+02  0.31029698655E+02  0.00000000000E+00 0.  1.
         25    2    1    2    0    0  0.00000000000E+00  0.00000000000E+00  0.94862278908E+02  0.15692167622E+03  0.12500224201E+03 0.  0.
    9000006    2    3    3    0    0 -0.99323760236E+01 -0.11376077536E+02  0.58528027443E+02  0.85170007157E+02  0.60002774012E+02 0.  0.
    9000007    2    3    3    0    0  0.99323760236E+01  0.11376077536E+02  0.36334251465E+02  0.71751669062E+02  0.60000474582E+02 0.  0.
          5    1    4    4  501    0  0.17826609459E+02  0.94722383955E+01  0.41124470069E+02  0.46052397804E+02  0.47000000000E+01 0.  1.
         -5    1    4    4    0  501 -0.27758985483E+02 -0.20848315931E+02  0.17403557374E+02  0.39117609353E+02  0.47000000000E+01 0.  1.
         12    1    5    5    0    0 -0.55375170395E+01 -0.12167997984E+02  0.41064340449E+02  0.43185695854E+02  0.00000000000E+00 0. -1.
        -12    1    5    5    0    0  0.15469893063E+02  0.23544075520E+02 -0.47300889846E+01  0.28565973207E+02  0.00000000000E+00 0. -1.
<mgrwt>
<rscale>  0 0.12500224E+03</rscale>
<asrwt>0</asrwt>
<pdfrwt beam="1">  1       21 0.19367996E-01 0.12500224E+03</pdfrwt>
<pdfrwt beam="2">  1       21 0.47737999E-02 0.12500224E+03</pdfrwt>
<totfact> 0.69893618E+06</totfact>
</mgrwt>
</event>
<event>
 9    1  0.4458519E-002  0.1250019E+03  0.7818608E-02  0.1235066E+00
         21   -1    0    0  503  502  0.00000000000E+00  0.00000000000E+00  0.84068497542E+03  0.84068497542E+03  0.00000000000E+00 0. -1.
         21   -1    0    0  502  503 -0.00000000000E+00 -0.00000000000E+00 -0.46466511334E+01  0.46466511334E+01  0.00000000000E+00 0. -1.
         25    2    1    2    0    0  0.17763568394E-14  0.88817841970E-15  0.83603832429E+03  0.84533162655E+03  0.12500191669E+03 0.  0.
    9000006    2    3    3    0    0  0.66552032072E+01 -0.44263831119E+01  0.31264213914E+03  0.31844696545E+03  0.59995650169E+02 0.  0.
    9000007    2    3    3    0    0 -0.66552032072E+01  0.44263831119E+01  0.52339618514E+03  0.52688466110E+03  0.59999957384E+02 0.  0.
          5    1    4    4  501    0 -0.13359765770E+02 -0.15748726795E+02  0.44540348509E+02  0.49319756512E+02  0.47000000000E+01 0.  1.
         -5    1    4    4    0  501  0.20014968977E+02  0.11322343683E+02  0.26810179063E+03  0.26912720894E+03  0.47000000000E+01 0.  1.
         12    1    5    5    0    0  0.12539183270E+02 -0.38677882727E+01  0.26717368577E+02  0.29765898052E+02  0.00000000000E+00 0. -1.
        -12    1    5    5    0    0 -0.19194386477E+02  0.82941713846E+01  0.49667881657E+03  0.49711876305E+03  0.00000000000E+00 0. -1.
<mgrwt>
<rscale>  0 0.12500192E+03</rscale>
<asrwt>0</asrwt>
<pdfrwt beam="1">  1       21 0.12933603E+00 0.12500192E+03</pdfrwt>
<pdfrwt beam="2">  1       21 0.71487007E-03 0.12500192E+03</pdfrwt>
<totfact> 0.27913572E+06</totfact>
</mgrwt>
</event>
<event>
 9    1  0.4458519E-002  0.1249994E+03  0.7818608E-02  0.1235070E+00
         21   -1    0    0  503  502  0.00000000000E+00  0.00000000000E+00  0.52945736696E+01  0.52945736696E+01  0.00000000000E+00 0. -1.
         21   -1    0    0  502  503 -0.00000000000E+00 -0.00000000000E+00 -0.73777655260E+03  0.73777655260E+03  0.00000000000E+00 0. -1.
         25    2    1    2    0    0  0.35527136788E-14 -0.17763568394E-14 -0.73248197893E+03  0.74307112627E+03  0.12499939695E+03 0.  0.
    9000006    2    3    3    0    0 -0.31475516469E+01  0.78932575156E+01 -0.45718319308E+03  0.46118166502E+03  0.59998712632E+02 0.  0.
    9000007    2    3    3    0    0  0.31475516469E+01 -0.78932575156E+01 -0.27529878585E+03  0.28188946125E+03  0.60000302324E+02 0.  0.
          5    1    4    4  501    0 -0.21373706475E+02 -0.14040666446E+01 -0.68341109328E+02  0.71773281629E+02  0.47000000000E+01 0. -1.
         -5    1    4    4    0  501  0.18226154828E+02  0.92973241602E+01 -0.38884208375E+03  0.38940838339E+03  0.47000000000E+01 0. -1.
         12    1    5    5    0    0 -0.22102453965E+02  0.12239406332E+02 -0.16627024454E+03  0.16817882078E+03  0.00000000000E+00 0.  1.
        -12    1    5    5    0    0  0.25250005611E+02 -0.20132663848E+02 -0.10902854130E+03  0.11371064047E+03  0.00000000000E+00 0.  1.
<mgrwt>
<rscale>  0 0.12499940E+03</rscale>
<asrwt>0</asrwt>
<pdfrwt beam="1">  1       21 0.81454945E-03 0.12499940E+03</pdfrwt>
<pdfrwt beam="2">  1       21 0.11350413E+00 0.12499940E+03</pdfrwt>
<totfact> 0.31314528E+06</totfact>
</mgrwt>
</event>
<event>
 9    1  0.4458519E-002  0.1250021E+03  0.7818608E-02  0.1235066E+00
         21   -1    0    0  503  502  0.00000000000E+00  0.00000000000E+00  0.55818053001E+02  0.55818053001E+02  0.00000000000E+00 0. -1.
         21   -1    0    0  502  503 -0.00000000000E+00 -0.00000000000E+00 -0.69984237888E+02  0.69984237888E+02  0.00000000000E+00 0. -1.
         25    2    1    2    0    0  0.00000000000E+00  0.00000000000E+00 -0.14166184887E+02  0.12580229089E+03  0.12500214238E+03 0.  0.
    9000006    2    3    3    0    0  0.19296961984E+01 -0.94610738085E+01  0.76078721696E+01  0.61247892600E+02  0.60001574846E+02 0.  0.
    9000007    2    3    3    0    0 -0.19296961984E+01  0.94610738085E+01 -0.21774057057E+02  0.64554398289E+02  0.59999376103E+02 0.  0.
          5    1    4    4  501    0  0.11306737200E+02 -0.31395762986E+02 -0.46513325225E+01  0.34018541030E+02  0.47000000000E+01 0. -1.
         -5    1    4    4    0  501 -0.93770410012E+01  0.21934689178E+02  0.12259204692E+02  0.27229351570E+02  0.47000000000E+01 0. -1.
         12    1    5    5    0    0 -0.10488972694E+02 -0.84893563237E+01 -0.37080347859E+02  0.39459345107E+02  0.00000000000E+00 0.  1.
        -12    1    5    5    0    0  0.85592764960E+01  0.17950430132E+02  0.15306290802E+02  0.25095053181E+02  0.00000000000E+00 0.  1.
<mgrwt>
<rscale>  0 0.12500214E+03</rscale>
<asrwt>0</asrwt>
<pdfrwt beam="1">  1       21 0.85873928E-02 0.12500214E+03</pdfrwt>
<pdfrwt beam="2">  1       21 0.10766806E-01 0.12500214E+03</pdfrwt>
<totfact> 0.73929315E+06</totfact>
</mgrwt>
</event>
<event>
 9    1  0.4458519E-002  0.1250075E+03  0.7818608E-02  0.1235058E+00
         21   -1    0    0  503  502  0.00000000000E+00  0.00000000000E+00  0.19531551103E+02  0.19531551103E+02  0.00000000000E+00 0. -1.
         21   -1    0    0  502  503 -0.00000000000E+00 -0.00000000000E+00 -0.20002084080E+03  0.20002084080E+03  0.00000000000E+00 0. -1.
         25    2    1    2    0    0 -0.88817841970E-15  0.17763568394E-14 -0.18048928970E+03  0.21955239190E+03  0.12500747616E+03 0.  0.
    9000006    2    3    3    0    0  0.27458364534E+01  0.73499806500E+01 -0.11771895112E+03  0.13236458163E+03  0.60008909201E+02 0.  0.
    9000007    2    3    3    0    0 -0.27458364534E+01 -0.73499806500E+01 -0.62770338573E+02  0.87187810272E+02  0.60000308515E+02 0.  0.
          5    1    4    4  501    0  0.21634476062E+02 -0.96909659547E+01 -0.20277154880E+02  0.31547082046E+02  0.47000000000E+01 0. -1.
         -5    1    4    4    0  501 -0.18888639608E+02  0.17040946605E+02 -0.97441796244E+02  0.10081749959E+03  0.47000000000E+01 0. -1.
         12    1    5    5    0    0  0.42484618772E+01  0.22177953664E+02 -0.48820621050E+02  0.53789999969E+02  0.00000000000E+00 0. -1.
        -12    1    5    5    0    0 -0.69942983306E+01 -0.29527934314E+02 -0.13949717524E+02  0.33397810302E+02  0.00000000000E+00 0. -1.
<mgrwt>
<rscale>  0 0.12500748E+03</rscale>
<asrwt>0</asrwt>
<pdfrwt beam="1">  1       21 0.30048542E-02 0.12500748E+03</pdfrwt>
<pdfrwt beam="2">  1       21 0.30772435E-01 0.12500748E+03</pdfrwt>
<totfact> 0.62856439E+06</totfact>
</mgrwt>
</event>
<event>
 9    1  0.4458519E-002  0.1249989E+03  0.7818608E-02  0.1235071E+00
         21   -1    0    0  503  502  0.00000000000E+00  0.00000000000E+00  0.49652658846E+01  0.49652658846E+01  0.00000000000E+00 0. -1.
         21   -1    0    0  502  503 -0.00000000000E+00 -0.00000000000E+00 -0.78670147662E+03  0.78670147662E+03  0.00000000000E+00 0. -1.
         25    2    1    2    0    0  0.35527136788E-14  0.00000000000E+00 -0.78173621074E+03  0.79166674250E+03  0.12499891205E+03 0.  0.
    9000006    2    3    3    0    0 -0.70307969457E+01  0.78127305461E+01 -0.30225964280E+03  0.30833643334E+03  0.59999946603E+02 0.  0.
    9000007    2    3    3    0    0  0.70307969457E+01 -0.78127305461E+01 -0.47947656793E+03  0.48333030917E+03  0.59999480814E+02 0.  0.
          5    1    4    4  501    0  0.14598498905E+02 -0.19737346001E+02 -0.14658923691E+03  0.14870498772E+03  0.47000000000E+01 0.  1.
         -5    1    4    4    0  501 -0.21629295850E+02  0.27550076547E+02 -0.15567040590E+03  0.15963144561E+03  0.47000000000E+01 0.  1.
         12    1    5    5    0    0  0.33704755151E+02 -0.53338657779E+01 -0.26835046581E+03  0.27051142886E+03  0.00000000000E+00 0.  1.
        -12    1    5    5    0    0 -0.26673958205E+02 -0.24788647682E+01 -0.21112610212E+03  0.21281888030E+03  0.00000000000E+00 0.  1.
<mgrwt>
<rscale>  0 0.12499891E+03</rscale>
<asrwt>0</asrwt>
<pdfrwt beam="1">  1       21 0.76388660E-03 0.12499891E+03</pdfrwt>
<pdfrwt beam="2">  1       21 0.12103107E+00 0.12499891E+03</pdfrwt>
<totfact> 0.29641569E+06</totfact>
</mgrwt>
</event>
<event>
 9    1  0.4458519E-002  0.1250000E+03  0.7818608E-02  0.1235069E+00
         21   -1    0    0  503  502  0.00000000000E+00  0.00000000000E+00  0.52085085886E+02  0.52085085886E+02  0.00000000000E+00 0. -1.
         21   -1    0    0  502  503 -0.00000000000E+00 -0.00000000000E+00 -0.74997421157E+02  0.74997421157E+02  0.00000000000E+00 0. -1.
         25    2    1    2    0    0  0.35527136788E-14  0.35527136788E-14 -0.22912335271E+02  0.12708250704E+03  0.12499995395E+03 0.  0.
    9000006    2    3    3    0    0  0.15480768747E+02 -0.79805913024E+01 -0.13147867003E+02  0.63845516399E+02  0.60000329324E+02 0.  0.
    9000007    2    3    3    0    0 -0.15480768747E+02  0.79805913024E+01 -0.97644682686E+01  0.63236990643E+02  0.60001900858E+02 0.  0.
          5    1    4    4  501    0  0.28357230442E+02  0.15951556743E+02  0.91717346853E+00  0.32886408865E+02  0.47000000000E+01 0. -1.
         -5    1    4    4    0  501 -0.12876461695E+02 -0.23932148045E+02 -0.14065040471E+02  0.30959107534E+02  0.47000000000E+01 0. -1.
         12    1    5    5    0    0 -0.16361329568E+02  0.82979978837E+01 -0.34186107529E+02  0.38797420302E+02  0.00000000000E+00 0.  1.
        -12    1    5    5    0    0  0.88056082121E+00 -0.31740658131E+00  0.24421639260E+02  0.24439570341E+02  0.00000000000E+00 0.  1.
<mgrwt>
<rscale>  0 0.12499995E+03</rscale>
<asrwt>0</asrwt>
<pdfrwt beam="1">  1       21 0.80130901E-02 0.12499995E+03</pdfrwt>
<pdfrwt beam="2">  1       21 0.11538065E-01 0.12499995E+03</pdfrwt>
<totfact> 0.73757995E+06</totfact>
</mgrwt>
</event>
<event>
 9    1  0.4458519E-002  0.1249950E+03  0.7818608E-02  0.1235077E+00
         21   -1    0    0  503  502  0.00000000000E+00  0.00000000000E+00  0.72214257048E+02  0.72214257048E+02  0.00000000000E+00 0.  1.
         21   -1    0    0  502  503 -0.00000000000E+00 -0.00000000000E+00 -0.54088162840E+02  0.54088162840E+02  0.00000000000E+00 0.  1.
         25    2    1    2    0    0  0.00000000000E+00 -0.35527136788E-14  0.18126094208E+02  0.12630241989E+03  0.12499498381E+03 0.  0.
    9000006    2    3    3    0    0 -0.43067379156E+01  0.52139219341E+01  0.25362518980E+02  0.65490850511E+02  0.60000509650E+02 0.  0.
    9000007    2    3    3    0    0  0.43067379156E+01 -0.52139219341E+01 -0.72364247715E+01  0.60811569377E+02  0.59999567942E+02 0.  0.
          5    1    4    4  501    0  0.17867727985E+02 -0.19023290672E+02  0.64370371187E+01  0.27288582561E+02  0.47000000000E+01 0.  1.
         -5    1    4    4    0  501 -0.22174465900E+02  0.24237212606E+02  0.18925481861E+02  0.38202267950E+02  0.47000000000E+01 0.  1.
         12    1    5    5    0    0 -0.24751632406E+02 -0.15880783696E+02 -0.42454490779E+01  0.29713068429E+02  0.00000000000E+00 0. -1.
        -12    1    5    5    0    0  0.29058370322E+02  0.10666861762E+02 -0.29909756937E+01  0.31098500948E+02  0.00000000000E+00 0. -1.
<mgrwt>
<rscale>  0 0.12499498E+03</rscale>
<asrwt>0</asrwt>
<pdfrwt beam="1">  1       21 0.11109886E-01 0.12499498E+03</pdfrwt>
<pdfrwt beam="2">  1       21 0.83212558E-02 0.12499498E+03</pdfrwt>
<totfact> 0.73873902E+06</totfact>
</mgrwt>
</event>
<event>
 9    1  0.4458519E-002  0.1249971E+03  0.7818608E-02  0.1235074E+00
         21   -1    0    0  503  502  0.00000000000E+00  0.00000000000E+00  0.16071261394E+03  0.16071261394E+03  0.00000000000E+00 0. -1.
         21   -1    0    0  502  503 -0.00000000000E+00 -0.00000000000E+00 -0.24304679935E+02  0.24304679935E+02  0.00000000000E+00 0. -1.
         25    2    1    2    0    0  0.00000000000E+00  0.35527136788E-14  0.13640793400E+03  0.18501729387E+03  0.12499709826E+03 0.  0.
    9000006    2    3    3    0    0  0.52262362170E+01 -0.55160330132E+01  0.44879803724E+02  0.75312206163E+02  0.59999928747E+02 0.  0.
    9000007    2    3    3    0    0 -0.52262362170E+01  0.55160330132E+01  0.91528130278E+02  0.10970508771E+03  0.60000562262E+02 0.  0.
          5    1    4    4  501    0  0.25530494841E+02  0.13140804504E+02  0.35299113650E+02  0.45744992451E+02  0.47000000000E+01 0.  1.
         -5    1    4    4    0  501 -0.20304258624E+02 -0.18656837517E+02  0.95806900740E+01  0.29567213712E+02  0.47000000000E+01 0.  1.
         12    1    5    5    0    0  0.22161821688E+02 -0.12439481295E+02  0.55350778447E+02  0.60906450480E+02  0.00000000000E+00 0. -1.
        -12    1    5    5    0    0 -0.27388057905E+02  0.17955514308E+02  0.36177351832E+02  0.48798637229E+02  0.00000000000E+00 0. -1.
<mgrwt>
<rscale>  0 0.12499710E+03</rscale>
<asrwt>0</asrwt>
<pdfrwt beam="1">  1       21 0.24725017E-01 0.12499710E+03</pdfrwt>
<pdfrwt beam="2">  1       21 0.37391816E-02 0.12499710E+03</pdfrwt>
<totfact> 0.66585476E+06</totfact>
</mgrwt>
</event>
<event>
 9    1  0.4458519E-002  0.1249922E+03  0.7818608E-02  0.1235081E+00
         21   -1    0    0  503  502  0.00000000000E+00  0.00000000000E+00  0.59649295136E+02  0.59649295136E+02  0.00000000000E+00 0.  1.
         21   -1    0    0  502  503 -0.00000000000E+00 -0.00000000000E+00 -0.65478764313E+02  0.65478764313E+02  0.00000000000E+00 0.  1.
         25    2    1    2    0    0 -0.35527136788E-14  0.00000000000E+00 -0.58294691773E+01  0.12512805945E+03  0.12499219396E+03 0.  0.
    9000006    2    3    3    0    0  0.13646141724E+02  0.16298832647E+01 -0.13736546621E+02  0.63068411700E+02  0.60000484481E+02 0.  0.
    9000007    2    3    3    0    0 -0.13646141724E+02 -0.16298832647E+01  0.79070774439E+01  0.62059647748E+02  0.60000035846E+02 0.  0.
          5    1    4    4  501    0  0.33396253826E+02  0.74772101827E+01  0.49077150899E+01  0.34891175233E+02  0.47000000000E+01 0. -1.
         -5    1    4    4    0  501 -0.19750112103E+02 -0.58473269180E+01 -0.18644261711E+02  0.28177236467E+02  0.47000000000E+01 0. -1.
         12    1    5    5    0    0 -0.15415319011E+02 -0.29482746492E+02  0.77040424347E+01  0.34149914652E+02  0.00000000000E+00 0. -1.
        -12    1    5    5    0    0  0.17691772869E+01  0.27852863228E+02  0.20303500924E+00  0.27909733096E+02  0.00000000000E+00 0. -1.
<mgrwt>
<rscale>  0 0.12499219E+03</rscale>
<asrwt>0</asrwt>
<pdfrwt beam="1">  1       21 0.91768146E-02 0.12499219E+03</pdfrwt>
<pdfrwt beam="2">  1       21 0.10073656E-01 0.12499219E+03</pdfrwt>
<totfact> 0.74041061E+06</totfact>
</mgrwt>
</event>
<event>
 9    1  0.4458519E-002  0.1249989E+03  0.7818608E-02  0.1235071E+00
         21   -1    0    0  503  502  0.00000000000E+00  0.00000000000E+00  0.59215935175E+03  0.59215935175E+03  0.00000000000E+00 0. -1.
         21   -1    0    0  502  503 -0.00000000000E+00 -0.00000000000E+00 -0.65964983925E+01  0.65964983925E+01  0.00000000000E+00 0. -1.
         25    2    1    2    0    0 -0.44408920985E-15  0.00000000000E+00  0.58556285336E+03  0.59875585015E+03  0.12499885139E+03 0.  0.
    9000006    2    3    3    0    0 -0.31256916711E+01  0.17086298248E+02  0.30251915888E+03  0.30890043431E+03  0.59999377420E+02 0.  0.
    9000007    2    3    3    0    0  0.31256916711E+01 -0.17086298248E+02  0.28304369448E+03  0.28985541584E+03  0.60005979436E+02 0.  0.
          5    1    4    4  501    0 -0.40227484301E+01 -0.21209440261E+02  0.14771148394E+03  0.14935459601E+03  0.47000000000E+01 0. -1.
         -5    1    4    4    0  501  0.89705675896E+00  0.38295738509E+02  0.15480767494E+03  0.15954583830E+03  0.47000000000E+01 0. -1.
         12    1    5    5    0    0  0.20503827891E+02 -0.22887410108E+02  0.75630177921E+02  0.81634332924E+02  0.00000000000E+00 0.  1.
        -12    1    5    5    0    0 -0.17378136220E+02  0.58011118602E+01  0.20741351656E+03  0.20822108291E+03  0.00000000000E+00 0.  1.
<mgrwt>
<rscale>  0 0.12499885E+03</rscale>
<asrwt>0</asrwt>
<pdfrwt beam="1">  1       21 0.91101396E-01 0.12499885E+03</pdfrwt>
<pdfrwt beam="2">  1       21 0.10148464E-02 0.12499885E+03</pdfrwt>
<totfact> 0.37150029E+06</totfact>
</mgrwt>
</event>
<event>
 9    1  0.4458519E-002  0.1249974E+03  0.7818608E-02  0.1235073E+00
         21   -1    0    0  503  502  0.00000000000E+00  0.00000000000E+00  0.30674060208E+02  0.30674060208E+02  0.00000000000E+00 0.  1.
         21   -1    0    0  502  503 -0.00000000000E+00 -0.00000000000E+00 -0.12734164562E+03  0.12734164562E+03  0.00000000000E+00 0.  1.
         25    2    1    2    0    0  0.00000000000E+00  0.00000000000E+00 -0.96667585408E+02  0.15801570583E+03  0.12499736485E+03 0.  0.
    9000006    2    3    3    0    0  0.13884141667E+02 -0.13891154964E+01 -0.34992675864E+02  0.70846335416E+02  0.60000140383E+02 0.  0.
    9000007    2    3    3    0    0 -0.13884141667E+02  0.13891154964E+01 -0.61674909544E+02  0.87169370409E+02  0.60000046988E+02 0.  0.
          5    1    4    4  501    0  0.31545312843E+02 -0.14403397034E+02 -0.82794063596E+01  0.35961134272E+02  0.47000000000E+01 0. -1.
         -5    1    4    4    0  501 -0.17661171176E+02  0.13014281538E+02 -0.26713269504E+02  0.34885201144E+02  0.47000000000E+01 0. -1.
         12    1    5    5    0    0  0.34691332650E+01  0.97520860239E+01 -0.66508300192E+02  0.67308930030E+02  0.00000000000E+00 0.  1.
        -12    1    5    5    0    0 -0.17353274932E+02 -0.83629705275E+01  0.48333906474E+01  0.19860440379E+02  0.00000000000E+00 0.  1.
<mgrwt>
<rscale>  0 0.12499736E+03</rscale>
<asrwt>0</asrwt>
<pdfrwt beam="1">  1       21 0.47190862E-02 0.12499736E+03</pdfrwt>
<pdfrwt beam="2">  1       21 0.19591022E-01 0.12499736E+03</pdfrwt>
<totfact> 0.69767446E+06</totfact>
</mgrwt>
</event>
<event>
 9    1  0.4458519E-002  0.1250011E+03  0.7818608E-02  0.1235068E+00
         21   -1    0    0  503  502  0.00000000000E+00  0.00000000000E+00  0.82788564982E+03  0.82788564982E+03  0.00000000000E+00 0. -1.
         21   -1    0    0  502  503 -0.00000000000E+00 -0.00000000000E+00 -0.47184294134E+01  0.47184294134E+01  0.00000000000E+00 0. -1.
         25    2    1    2    0    0  0.17763568394E-14  0.17763568394E-14  0.82316722040E+03  0.83260407923E+03  0.12500112001E+03 0.  0.
    9000006    2    3    3    0    0 -0.11867992761E+02 -0.11455800735E+02  0.37264301539E+03  0.37780281721E+03  0.60000559622E+02 0.  0.
    9000007    2    3    3    0    0  0.11867992761E+02  0.11455800735E+02  0.45052420502E+03  0.45480126202E+03  0.60000366697E+02 0.  0.
          5    1    4    4  501    0 -0.17713672390E+02 -0.20968174456E+01  0.31903877430E+02  0.36852655644E+02  0.47000000000E+01 0.  1.
         -5    1    4    4    0  501  0.58456796292E+01 -0.93589832897E+01  0.34073913796E+03  0.34095016157E+03  0.47000000000E+01 0.  1.
         12    1    5    5    0    0  0.10862161803E+02  0.18314859115E+02  0.51654949105E+02  0.55871767383E+02  0.00000000000E+00 0.  1.
        -12    1    5    5    0    0  0.10058309582E+01 -0.68590583796E+01  0.39886925591E+03  0.39892949463E+03  0.00000000000E+00 0.  1.
<mgrwt>
<rscale>  0 0.12500112E+03</rscale>
<asrwt>0</asrwt>
<pdfrwt beam="1">  1       21 0.12736691E+00 0.12500112E+03</pdfrwt>
<pdfrwt beam="2">  1       21 0.72591288E-03 0.12500112E+03</pdfrwt>
<totfact> 0.28309919E+06</totfact>
</mgrwt>
</event>
<event>
 9    1  0.4458519E-002  0.1250011E+03  0.7818608E-02  0.1235068E+00
         21   -1    0    0  503  502  0.00000000000E+00  0.00000000000E+00  0.14775591000E+03  0.14775591000E+03  0.00000000000E+00 0. -1.
         21   -1    0    0  502  503 -0.00000000000E+00 -0.00000000000E+00 -0.26437642769E+02  0.26437642769E+02  0.00000000000E+00 0. -1.
         25    2    1    2    0    0  0.88817841970E-15 -0.35527136788E-14  0.12131826724E+03  0.17419355277E+03  0.12500108745E+03 0.  0.
    9000006    2    3    3    0    0 -0.56937112762E+00  0.76779121821E+00  0.36295022936E+02  0.70126565306E+02  0.59995773058E+02 0.  0.
    9000007    2    3    3    0    0  0.56937112762E+00 -0.76779121821E+00  0.85023244300E+02  0.10406698747E+03  0.60000601018E+02 0.  0.
          5    1    4    4  501    0  0.78978239639E+01 -0.23966414828E+02  0.35169599685E+02  0.43540273369E+02  0.47000000000E+01 0.  1.
         -5    1    4    4    0  501 -0.84671950916E+01  0.24734206046E+02  0.11254232504E+01  0.26586291936E+02  0.47000000000E+01 0.  1.
         12    1    5    5    0    0 -0.85191145390E+01  0.24469039635E+02  0.66773106823E+02  0.71623718195E+02  0.00000000000E+00 0. -1.
        -12    1    5    5    0    0  0.90884856666E+01 -0.25236830853E+02  0.18250137476E+02  0.32443269273E+02  0.00000000000E+00 0. -1.
<mgrwt>
<rscale>  0 0.12500109E+03</rscale>
<asrwt>0</asrwt>
<pdfrwt beam="1">  1       21 0.22731678E-01 0.12500109E+03</pdfrwt>
<pdfrwt beam="2">  1       21 0.40673297E-02 0.12500109E+03</pdfrwt>
<totfact> 0.67822086E+06</totfact>
</mgrwt>
</event>
<event>
 9    1  0.4458519E-002  0.1249977E+03  0.7818608E-02  0.1235073E+00
         21   -1    0    0  503  502  0.00000000000E+00  0.00000000000E+00  0.81949725795E+03  0.81949725795E+03  0.00000000000E+00 0.  1.
         21   -1    0    0  502  503 -0.00000000000E+00 -0.00000000000E+00 -0.47664630314E+01  0.47664630314E+01  0.00000000000E+00 0.  1.
         25    2    1    2    0    0  0.00000000000E+00  0.00000000000E+00  0.81473079492E+03  0.82426372098E+03  0.12499765413E+03 0.  0.
    9000006    2    3    3    0    0  0.13956064341E+02  0.10058609426E+02  0.38621312177E+03  0.39122445145E+03  0.60000405234E+02 0.  0.
    9000007    2    3    3    0    0 -0.13956064341E+02 -0.10058609426E+02  0.42851767315E+03  0.43303926953E+03  0.59997211615E+02 0.  0.
          5    1    4    4  501    0  0.10865868416E+02 -0.79054315620E+01  0.35106027034E+03  0.35134878164E+03  0.47000000000E+01 0. -1.
         -5    1    4    4    0  501  0.30901959242E+01  0.17964040988E+02  0.35152851430E+02  0.39875669814E+02  0.47000000000E+01 0. -1.
         12    1    5    5    0    0  0.75442022213E+01 -0.62150025117E+01  0.10111986529E+02  0.14063908238E+02  0.00000000000E+00 0. -1.
        -12    1    5    5    0    0 -0.21500266562E+02 -0.38436069143E+01  0.41840568662E+03  0.41897536130E+03  0.00000000000E+00 0. -1.
<mgrwt>
<rscale>  0 0.12499765E+03</rscale>
<asrwt>0</asrwt>
<pdfrwt beam="1">  1       21 0.12607639E+00 0.12499765E+03</pdfrwt>
<pdfrwt beam="2">  1       21 0.73330265E-03 0.12499765E+03</pdfrwt>
<totfact> 0.28576211E+06</totfact>
</mgrwt>
</event>
<event>
 9    1  0.4458519E-002  0.1249988E+03  0.7818608E-02  0.1235071E+00
         21   -1    0    0  503  502  0.00000000000E+00  0.00000000000E+00  0.12825856209E+03  0.12825856209E+03  0.00000000000E+00 0.  1.
         21   -1    0    0  502  503 -0.00000000000E+00 -0.00000000000E+00 -0.30455461935E+02  0.30455461935E+02  0.00000000000E+00 0.  1.
         25    2    1    2    0    0  0.17763568394E-14  0.17763568394E-14  0.97803100155E+02  0.15871402403E+03  0.12499878008E+03 0.  0.
    9000006    2    3    3    0    0  0.12346005019E+02 -0.25573778728E+00  0.64642929890E+02  0.89056731133E+02  0.59999197775E+02 0.  0.
    9000007    2    3    3    0    0 -0.12346005019E+02  0.25573778728E+00  0.33160170266E+02  0.69657292893E+02  0.60000435993E+02 0.  0.
          5    1    4    4  501    0  0.11542820556E+02  0.14357954573E+02 -0.33868475551E+01  0.19311869466E+02  0.47000000000E+01 0. -1.
         -5    1    4    4    0  501  0.80318446289E+00 -0.14613692361E+02  0.68029777445E+02  0.69744861667E+02  0.47000000000E+01 0. -1.
         12    1    5    5    0    0  0.51823976816E+01  0.17612670560E+02  0.40039557427E+02  0.44048037061E+02  0.00000000000E+00 0.  1.
        -12    1    5    5    0    0 -0.17528402701E+02 -0.17356932773E+02 -0.68793871614E+01  0.25609255831E+02  0.00000000000E+00 0.  1.
<mgrwt>
<rscale>  0 0.12499878E+03</rscale>
<asrwt>0</asrwt>
<pdfrwt beam="1">  1       21 0.19732086E-01 0.12499878E+03</pdfrwt>
<pdfrwt beam="2">  1       21 0.46854558E-02 0.12499878E+03</pdfrwt>
<totfact> 0.69679132E+06</totfact>
</mgrwt>
</event>
<event>
 9    1  0.4458519E-002  0.1250005E+03  0.7818608E-02  0.1235069E+00
         21   -1    0    0  503  502  0.00000000000E+00  0.00000000000E+00  0.14646445000E+03  0.14646445000E+03  0.00000000000E+00 0. -1.
         21   -1    0    0  502  503 -0.00000000000E+00 -0.00000000000E+00 -0.26670505881E+02  0.26670505881E+02  0.00000000000E+00 0. -1.
         25    2    1    2    0    0  0.00000000000E+00  0.00000000000E+00  0.11979394412E+03  0.17313495588E+03  0.12500049560E+03 0.  0.
    9000006    2    3    3    0    0 -0.56862201824E+01  0.27256693817E+01  0.37285406453E+02  0.70922310619E+02  0.60000085297E+02 0.  0.
    9000007    2    3    3    0    0  0.56862201824E+01 -0.27256693817E+01  0.82508537669E+02  0.10221264526E+03  0.60000030751E+02 0.  0.
          5    1    4    4  501    0 -0.23962681735E+01  0.23158572151E+02  0.42840513758E+02  0.48984295282E+02  0.47000000000E+01 0.  1.
         -5    1    4    4    0  501 -0.32899520089E+01 -0.20432902769E+02 -0.55551073047E+01  0.21938015337E+02  0.47000000000E+01 0.  1.
         12    1    5    5    0    0  0.15165480587E+02  0.25933600044E+02  0.38187577403E+02  0.48588419202E+02  0.00000000000E+00 0.  1.
        -12    1    5    5    0    0 -0.94792604046E+01 -0.28659269426E+02  0.44320960267E+02  0.53624226062E+02  0.00000000000E+00 0.  1.
<mgrwt>
<rscale>  0 0.12500050E+03</rscale>
<asrwt>0</asrwt>
<pdfrwt beam="1">  1       21 0.22532992E-01 0.12500050E+03</pdfrwt>
<pdfrwt beam="2">  1       21 0.41031549E-02 0.12500050E+03</pdfrwt>
<totfact> 0.67947079E+06</totfact>
</mgrwt>
</event>
<event>
 9    1  0.4458519E-002  0.1249921E+03  0.7818608E-02  0.1235082E+00
         21   -1    0    0  503  502  0.00000000000E+00  0.00000000000E+00  0.14893807266E+02  0.14893807266E+02  0.00000000000E+00 0. -1.
         21   -1    0    0  502  503 -0.00000000000E+00 -0.00000000000E+00 -0.26224040720E+03  0.26224040720E+03  0.00000000000E+00 0. -1.
         25    2    1    2    0    0  0.00000000000E+00  0.00000000000E+00 -0.24734659993E+03  0.27713421446E+03  0.12499212907E+03 0.  0.
    9000006    2    3    3    0    0 -0.81478026592E+01 -0.15450340054E+02 -0.12213261431E+03  0.13719146289E+03  0.60000185958E+02 0.  0.
    9000007    2    3    3    0    0  0.81478026592E+01  0.15450340054E+02 -0.12521398562E+03  0.13994275157E+03  0.60002765167E+02 0.  0.
          5    1    4    4  501    0  0.49433044173E+01  0.21457935272E+02 -0.36062835007E+02  0.42514671744E+02  0.47000000000E+01 0. -1.
         -5    1    4    4    0  501 -0.13091107077E+02 -0.36908275326E+02 -0.86069779307E+02  0.94676791148E+02  0.47000000000E+01 0. -1.
         12    1    5    5    0    0  0.16428501364E+02 -0.20083054425E+02 -0.49003436385E+02  0.55448728657E+02  0.00000000000E+00 0. -1.
        -12    1    5    5    0    0 -0.82806987049E+01  0.35533394479E+02 -0.76210549231E+02  0.84494022915E+02  0.00000000000E+00 0. -1.
<mgrwt>
<rscale>  0 0.12499213E+03</rscale>
<asrwt>0</asrwt>
<pdfrwt beam="1">  1       21 0.22913551E-02 0.12499213E+03</pdfrwt>
<pdfrwt beam="2">  1       21 0.40344676E-01 0.12499213E+03</pdfrwt>
<totfact> 0.57422976E+06</totfact>
</mgrwt>
</event>
<event>
 9    1  0.4458519E-002  0.1250003E+03  0.7818608E-02  0.1235069E+00
         21   -1    0    0  503  502  0.00000000000E+00  0.00000000000E+00  0.17842967033E+03  0.17842967033E+03  0.00000000000E+00 0.  1.
         21   -1    0    0  502  503 -0.00000000000E+00 -0.00000000000E+00 -0.21892483432E+02  0.21892483432E+02  0.00000000000E+00 0.  1.
         25    2    1    2    0    0  0.17763568394E-14 -0.71054273576E-14  0.15653718690E+03  0.20032215376E+03  0.12500029762E+03 0.  0.
    9000006    2    3    3    0    0 -0.59402123006E+01  0.16318795653E+02  0.81774246134E+02  0.10290104656E+03  0.60000073655E+02 0.  0.
    9000007    2    3    3    0    0  0.59402123006E+01 -0.16318795653E+02  0.74762940764E+02  0.97421107202E+02  0.59998213333E+02 0.  0.
          5    1    4    4  501    0  0.14439267241E+02  0.19536292392E+02  0.77760387799E+01  0.25936768071E+02  0.47000000000E+01 0. -1.
         -5    1    4    4    0  501 -0.20379479542E+02 -0.32174967386E+01  0.73998207354E+02  0.76964278488E+02  0.47000000000E+01 0. -1.
         12    1    5    5    0    0 -0.27376616605E+01  0.22062875154E+02  0.19451605677E+02  0.29540315077E+02  0.00000000000E+00 0. -1.
        -12    1    5    5    0    0  0.86778739610E+01 -0.38381670808E+02  0.55311335087E+02  0.67880792125E+02  0.00000000000E+00 0. -1.
<mgrwt>
<rscale>  0 0.12500030E+03</rscale>
<asrwt>0</asrwt>
<pdfrwt beam="1">  1       21 0.27450718E-01 0.12500030E+03</pdfrwt>
<pdfrwt beam="2">  1       21 0.33680745E-02 0.12500030E+03</pdfrwt>
<totfact> 0.64891873E+06</totfact>
</mgrwt>
</event>
<event>
 9    1  0.4458519E-002  0.1249986E+03  0.7818608E-02  0.1235071E+00
         21   -1    0    0  503  502  0.00000000000E+00  0.00000000000E+00  0.16869733345E+03  0.16869733345E+03  0.00000000000E+00 0. -1.
         21   -1    0    0  502  503 -0.00000000000E+00 -0.00000000000E+00 -0.23154871709E+02  0.23154871709E+02  0.00000000000E+00 0. -1.
         25    2    1    2    0    0 -0.66613381478E-15 -0.35527136788E-14  0.14554246174E+03  0.19185220515E+03  0.12499864181E+03 0.  0.
    9000006    2    3    3    0    0 -0.13543602897E+01 -0.17253822065E+02  0.68823426104E+02  0.92930959137E+02  0.59999754314E+02 0.  0.
    9000007    2    3    3    0    0  0.13543602897E+01  0.17253822065E+02  0.76719035632E+02  0.98921246018E+02  0.60000615144E+02 0.  0.
          5    1    4    4  501    0  0.27279676506E+02  0.14756441837E+01  0.34250867042E+02  0.44063251913E+02  0.47000000000E+01 0.  1.
         -5    1    4    4    0  501 -0.28634036796E+02 -0.18729466248E+02  0.34572559062E+02  0.48867707223E+02  0.47000000000E+01 0.  1.
         12    1    5    5    0    0 -0.24605075198E+00  0.32043833077E+02  0.77663646328E+02  0.84014937601E+02  0.00000000000E+00 0.  1.
        -12    1    5    5    0    0  0.16004110417E+01 -0.14790011012E+02 -0.94461069542E+00  0.14906308416E+02  0.00000000000E+00 0.  1.
<mgrwt>
<rscale>  0 0.12499864E+03</rscale>
<asrwt>0</asrwt>
<pdfrwt beam="1">  1       21 0.25953435E-01 0.12499864E+03</pdfrwt>
<pdfrwt beam="2">  1       21 0.35622881E-02 0.12499864E+03</pdfrwt>
<totfact> 0.65819464E+06</totfact>
</mgrwt>
</event>
<event>
 9    1  0.4458519E-002  0.1249969E+03  0.7818608E-02  0.1235074E+00
         21   -1    0    0  503  502  0.00000000000E+00  0.00000000000E+00  0.16634610529E+03  0.16634610529E+03  0.00000000000E+00 0.  1.
         21   -1    0    0  502  503 -0.00000000000E+00 -0.00000000000E+00 -0.23481483110E+02  0.23481483110E+02  0.00000000000E+00 0.  1.
         25    2    1    2    0    0  0.17763568394E-14  0.17763568394E-14  0.14286462218E+03  0.18982758840E+03  0.12499685215E+03 0.  0.
    9000006    2    3    3    0    0 -0.62039763024E+01  0.85302157813E+01  0.50239630262E+02  0.78964501367E+02  0.60000984359E+02 0.  0.
    9000007    2    3    3    0    0  0.62039763024E+01 -0.85302157813E+01  0.92624991915E+02  0.11086308703E+03  0.59999841960E+02 0.  0.
          5    1    4    4  501    0 -0.22151991876E+02  0.26027724821E+02  0.39786516491E+02  0.52661277025E+02  0.47000000000E+01 0.  1.
         -5    1    4    4    0  501  0.15948015573E+02 -0.17497509039E+02  0.10453113771E+02  0.26303224342E+02  0.47000000000E+01 0.  1.
         12    1    5    5    0    0  0.29709818333E+02 -0.12241463720E+02  0.73895381241E+02  0.80579489376E+02  0.00000000000E+00 0. -1.
        -12    1    5    5    0    0 -0.23505842031E+02  0.37112479386E+01  0.18729610674E+02  0.30283597653E+02  0.00000000000E+00 0. -1.
<mgrwt>
<rscale>  0 0.12499685E+03</rscale>
<asrwt>0</asrwt>
<pdfrwt beam="1">  1       21 0.25591708E-01 0.12499685E+03</pdfrwt>
<pdfrwt beam="2">  1       21 0.36125360E-02 0.12499685E+03</pdfrwt>
<totfact> 0.66046900E+06</totfact>
</mgrwt>
</event>
<event>
 9    1  0.4458519E-002  0.1250061E+03  0.7818608E-02  0.1235060E+00
         21   -1    0    0  503  502  0.00000000000E+00  0.00000000000E+00  0.11464694450E+02  0.11464694450E+02  0.00000000000E+00 0.  1.
         21   -1    0    0  502  503 -0.00000000000E+00 -0.00000000000E+00 -0.34075303163E+03  0.34075303163E+03  0.00000000000E+00 0.  1.
         25    2    1    2    0    0  0.17763568394E-14  0.17763568394E-14 -0.32928833718E+03  0.35221772608E+03  0.12500607010E+03 0.  0.
    9000006    2    3    3    0    0  0.13304419155E+02  0.10626038977E+02 -0.15314116788E+03  0.16535456821E+03  0.59999963779E+02 0.  0.
    9000007    2    3    3    0    0 -0.13304419155E+02 -0.10626038977E+02 -0.17614716930E+03  0.18686315787E+03  0.60000785368E+02 0.  0.
          5    1    4    4  501    0 -0.56351531271E+01 -0.19358138980E+02 -0.93852592212E+02  0.96108748615E+02  0.47000000000E+01 0. -1.
         -5    1    4    4    0  501  0.18939572282E+02  0.29984177957E+02 -0.59288575670E+02  0.69245819592E+02  0.47000000000E+01 0. -1.
         12    1    5    5    0    0  0.16822783810E+02 -0.93191107261E+00 -0.14751588827E+02  0.22393835899E+02  0.00000000000E+00 0. -1.
        -12    1    5    5    0    0 -0.30127202965E+02 -0.96941279040E+01 -0.16139558047E+03  0.16446932197E+03  0.00000000000E+00 0. -1.
<mgrwt>
<rscale>  0 0.12500607E+03</rscale>
<asrwt>0</asrwt>
<pdfrwt beam="1">  1       21 0.17637996E-02 0.12500607E+03</pdfrwt>
<pdfrwt beam="2">  1       21 0.52423528E-01 0.12500607E+03</pdfrwt>
<totfact> 0.51367259E+06</totfact>
</mgrwt>
</event>
<event>
 9    1  0.4458519E-002  0.1249999E+03  0.7818608E-02  0.1235069E+00
         21   -1    0    0  503  502  0.00000000000E+00  0.00000000000E+00  0.59209118072E+02  0.59209118072E+02  0.00000000000E+00 0. -1.
         21   -1    0    0  502  503 -0.00000000000E+00 -0.00000000000E+00 -0.65973680862E+02  0.65973680862E+02  0.00000000000E+00 0. -1.
         25    2    1    2    0    0  0.17763568394E-14  0.17763568394E-14 -0.67645627901E+01  0.12518279893E+03  0.12499989536E+03 0.  0.
    9000006    2    3    3    0    0  0.14356878718E+02  0.92938391980E+01  0.32585593905E+00  0.62391515898E+02  0.60000830497E+02 0.  0.
    9000007    2    3    3    0    0 -0.14356878718E+02 -0.92938391980E+01 -0.70904187292E+01  0.62791283036E+02  0.59999798117E+02 0.  0.
          5    1    4    4  501    0  0.70414486104E+00  0.33527699602E+02  0.33126437867E+01  0.34024492200E+02  0.47000000000E+01 0.  1.
         -5    1    4    4    0  501  0.13652733857E+02 -0.24233860404E+02 -0.29867878476E+01  0.28367023698E+02  0.47000000000E+01 0.  1.
         12    1    5    5    0    0 -0.36403086240E+02 -0.14423548584E+02 -0.86571607237E+01  0.40101993383E+02  0.00000000000E+00 0. -1.
        -12    1    5    5    0    0  0.22046207522E+02  0.51297093856E+01  0.15667419945E+01  0.22689289653E+02  0.00000000000E+00 0. -1.
<mgrwt>
<rscale>  0 0.12499990E+03</rscale>
<asrwt>0</asrwt>
<pdfrwt beam="1">  1       21 0.91090951E-02 0.12499990E+03</pdfrwt>
<pdfrwt beam="2">  1       21 0.10149797E-01 0.12499990E+03</pdfrwt>
<totfact> 0.74019092E+06</totfact>
</mgrwt>
</event>
<event>
 9    1  0.4458519E-002  0.1249967E+03  0.7818608E-02  0.1235074E+00
         21   -1    0    0  503  502  0.00000000000E+00  0.00000000000E+00  0.18306349020E+03  0.18306349020E+03  0.00000000000E+00 0. -1.
         21   -1    0    0  502  503 -0.00000000000E+00 -0.00000000000E+00 -0.21337104083E+02  0.21337104083E+02  0.00000000000E+00 0. -1.
         25    2    1    2    0    0 -0.17763568394E-14  0.00000000000E+00  0.16172638612E+03  0.20440059428E+03  0.12499671587E+03 0.  0.
    9000006    2    3    3    0    0  0.13053478245E+02  0.88972412781E+01  0.93156845342E+02  0.11192784207E+03  0.60000748324E+02 0.  0.
    9000007    2    3    3    0    0 -0.13053478245E+02 -0.88972412781E+01  0.68569540776E+02  0.92472752216E+02  0.59998948187E+02 0.  0.
          5    1    4    4  501    0  0.72486506227E+01  0.63338190939E+01 -0.61202090950E+01  0.12337226574E+02  0.47000000000E+01 0. -1.
         -5    1    4    4    0  501  0.58048276227E+01  0.25634221842E+01  0.99277054436E+02  0.99590615495E+02  0.47000000000E+01 0. -1.
         12    1    5    5    0    0 -0.21774541288E+02 -0.14753900939E+02  0.75457925122E+02  0.79910616972E+02  0.00000000000E+00 0. -1.
        -12    1    5    5    0    0  0.87210630430E+01  0.58566596609E+01 -0.68883843459E+01  0.12562135244E+02  0.00000000000E+00 0. -1.
<mgrwt>
<rscale>  0 0.12499672E+03</rscale>
<asrwt>0</asrwt>
<pdfrwt beam="1">  1       21 0.28163613E-01 0.12499672E+03</pdfrwt>
<pdfrwt beam="2">  1       21 0.32826315E-02 0.12499672E+03</pdfrwt>
<totfact> 0.64458873E+06</totfact>
</mgrwt>
</event>
<event>
 9    1  0.4458519E-002  0.1250010E+03  0.7818608E-02  0.1235068E+00
         21   -1    0    0  503  502  0.00000000000E+00  0.00000000000E+00  0.62896619515E+02  0.62896619515E+02  0.00000000000E+00 0. -1.
         21   -1    0    0  502  503 -0.00000000000E+00 -0.00000000000E+00 -0.62106900940E+02  0.62106900940E+02  0.00000000000E+00 0. -1.
         25    2    1    2    0    0  0.00000000000E+00  0.00000000000E+00  0.78971857501E+00  0.12500352045E+03  0.12500102588E+03 0.  0.
    9000006    2    3    3    0    0  0.39951264893E+01  0.16580638103E+02  0.43101367662E+01  0.62525176804E+02  0.59999515496E+02 0.  0.
    9000007    2    3    3    0    0 -0.39951264893E+01 -0.16580638103E+02 -0.35204181912E+01  0.62478343651E+02  0.60002262336E+02 0.  0.
          5    1    4    4  501    0  0.91621468413E+01 -0.13829870029E+02 -0.17413251105E+02  0.24505541288E+02  0.47000000000E+01 0. -1.
         -5    1    4    4    0  501 -0.51670203520E+01  0.30410508132E+02  0.21723387871E+02  0.38019635516E+02  0.47000000000E+01 0. -1.
         12    1    5    5    0    0  0.15381660729E+01 -0.15637142761E+02  0.27111923481E+02  0.31335963100E+02  0.00000000000E+00 0. -1.
        -12    1    5    5    0    0 -0.55332925622E+01 -0.94349534228E+00 -0.30632341672E+02  0.31142380550E+02  0.00000000000E+00 0. -1.
<mgrwt>
<rscale>  0 0.12500103E+03</rscale>
<asrwt>0</asrwt>
<pdfrwt beam="1">  1       21 0.96764030E-02 0.12500103E+03</pdfrwt>
<pdfrwt beam="2">  1       21 0.95549078E-02 0.12500103E+03</pdfrwt>
<totfact> 0.74041164E+06</totfact>
</mgrwt>
</event>
<event>
 9    1  0.4458519E-002  0.1249979E+03  0.7818608E-02  0.1235073E+00
         21   -1    0    0  503  502  0.00000000000E+00  0.00000000000E+00  0.67570786024E+02  0.67570786024E+02  0.00000000000E+00 0.  1.
         21   -1    0    0  502  503 -0.00000000000E+00 -0.00000000000E+00 -0.57807783602E+02  0.57807783602E+02  0.00000000000E+00 0.  1.
         25    2    1    2    0    0 -0.35527136788E-14  0.35527136788E-14  0.97630024217E+01  0.12537856963E+03  0.12499787800E+03 0.  0.
    9000006    2    3    3    0    0 -0.96199686432E+01  0.14426223001E+02  0.25473876880E+01  0.62507100369E+02  0.59999905881E+02 0.  0.
    9000007    2    3    3    0    0  0.96199686432E+01 -0.14426223001E+02  0.72156147337E+01  0.62871469256E+02  0.60000807025E+02 0.  0.
          5    1    4    4  501    0 -0.14553495419E+02 -0.15618942748E+02  0.17743985703E+02  0.28154833157E+02  0.47000000000E+01 0.  1.
         -5    1    4    4    0  501  0.49335267762E+01  0.30045165750E+02 -0.15196598015E+02  0.34352267212E+02  0.47000000000E+01 0.  1.
         12    1    5    5    0    0 -0.22136534686E+02  0.46127868243E+01  0.11896065128E+02  0.25550349033E+02  0.00000000000E+00 0.  1.
        -12    1    5    5    0    0  0.31756503329E+02 -0.19039009826E+02 -0.46804503944E+01  0.37321120223E+02  0.00000000000E+00 0.  1.
<mgrwt>
<rscale>  0 0.12499788E+03</rscale>
<asrwt>0</asrwt>
<pdfrwt beam="1">  1       21 0.10395505E-01 0.12499788E+03</pdfrwt>
<pdfrwt beam="2">  1       21 0.88935052E-02 0.12499788E+03</pdfrwt>
<totfact> 0.73996426E+06</totfact>
</mgrwt>
</event>
<event>
 9    1  0.4458519E-002  0.1250028E+03  0.7818608E-02  0.1235065E+00
         21   -1    0    0  503  502  0.00000000000E+00  0.00000000000E+00  0.58043452760E+02  0.58043452760E+02  0.00000000000E+00 0. -1.
         21   -1    0    0  502  503 -0.00000000000E+00 -0.00000000000E+00 -0.67301688962E+02  0.67301688962E+02  0.00000000000E+00 0. -1.
         25    2    1    2    0    0  0.35527136788E-14  0.00000000000E+00 -0.92582362016E+01  0.12534514172E+03  0.12500275843E+03 0.  0.
    9000006    2    3    3    0    0 -0.13545883629E+02 -0.92657361396E+01 -0.10740978092E+02  0.63124605034E+02  0.60000019341E+02 0.  0.
    9000007    2    3    3    0    0  0.13545883629E+02  0.92657361396E+01  0.14827418905E+01  0.62220536688E+02  0.59998765260E+02 0.  0.
          5    1    4    4  501    0  0.20279034052E+02 -0.92786617075E+01  0.80198471110E+01  0.24160727076E+02  0.47000000000E+01 0. -1.
         -5    1    4    4    0  501 -0.33824917681E+02  0.12925567873E-01 -0.18760825203E+02  0.38963877958E+02  0.47000000000E+01 0. -1.
         12    1    5    5    0    0 -0.15415590050E+02  0.11164694142E+02 -0.18846129442E+02  0.26785582070E+02  0.00000000000E+00 0.  1.
        -12    1    5    5    0    0  0.28961473678E+02 -0.18989580022E+01  0.20328871333E+02  0.35434954618E+02  0.00000000000E+00 0.  1.
<mgrwt>
<rscale>  0 0.12500276E+03</rscale>
<asrwt>0</asrwt>
<pdfrwt beam="1">  1       21 0.89297620E-02 0.12500276E+03</pdfrwt>
<pdfrwt beam="2">  1       21 0.10354106E-01 0.12500276E+03</pdfrwt>
<totfact> 0.73991760E+06</totfact>
</mgrwt>
</event>
<event>
 9    1  0.4458519E-002  0.1250056E+03  0.7818608E-02  0.1235061E+00
         21   -1    0    0  503  502  0.00000000000E+00  0.00000000000E+00  0.18176963144E+03  0.18176963144E+03  0.00000000000E+00 0. -1.
         21   -1    0    0  502  503 -0.00000000000E+00 -0.00000000000E+00 -0.21492031733E+02  0.21492031733E+02  0.00000000000E+00 0. -1.
         25    2    1    2    0    0  0.35527136788E-14 -0.17763568394E-14  0.16027759971E+03  0.20326166317E+03  0.12500557887E+03 0.  0.
    9000006    2    3    3    0    0 -0.81879046724E+01 -0.10336049272E+02  0.61418810649E+02  0.86868647767E+02  0.60000133050E+02 0.  0.
    9000007    2    3    3    0    0  0.81879046724E+01  0.10336049272E+02  0.98858789061E+02  0.11639301541E+03  0.60003317938E+02 0.  0.
          5    1    4    4  501    0  0.17519693255E+02 -0.23880857162E+02  0.19963176045E+02  0.36025732308E+02  0.47000000000E+01 0.  1.
         -5    1    4    4    0  501 -0.25707597928E+02  0.13544807890E+02  0.41455634603E+02  0.50842915459E+02  0.47000000000E+01 0.  1.
         12    1    5    5    0    0 -0.16602785515E+01  0.29317025800E+02  0.22210682284E+02  0.36817915940E+02  0.00000000000E+00 0. -1.
        -12    1    5    5    0    0  0.98481832239E+01 -0.18980976528E+02  0.76648106777E+02  0.79575099468E+02  0.00000000000E+00 0. -1.
<mgrwt>
<rscale>  0 0.12500558E+03</rscale>
<asrwt>0</asrwt>
<pdfrwt beam="1">  1       21 0.27964558E-01 0.12500558E+03</pdfrwt>
<pdfrwt beam="2">  1       21 0.33064666E-02 0.12500558E+03</pdfrwt>
<totfact> 0.64566417E+06</totfact>
</mgrwt>
</event>
<event>
 9    1  0.4458519E-002  0.1250115E+03  0.7818608E-02  0.1235051E+00
         21   -1    0    0  503  502  0.00000000000E+00  0.00000000000E+00  0.15312554532E+03  0.15312554532E+03  0.00000000000E+00 0.  1.
         21   -1    0    0  502  503 -0.00000000000E+00 -0.00000000000E+00 -0.25514825852E+02  0.25514825852E+02  0.00000000000E+00 0.  1.
         25    2    1    2    0    0 -0.88817841970E-15  0.00000000000E+00  0.12761071947E+03  0.17864037117E+03  0.12501154543E+03 0.  0.
    9000006    2    3    3    0    0  0.17975765717E+01  0.16101283638E+02  0.54277445811E+02  0.82514009149E+02  0.60000316380E+02 0.  0.
    9000007    2    3    3    0    0 -0.17975765717E+01 -0.16101283638E+02  0.73333273656E+02  0.96126362024E+02  0.60000215287E+02 0.  0.
          5    1    4    4  501    0 -0.22317937960E+02 -0.85956496381E+01  0.10427356048E+02  0.26510286713E+02  0.47000000000E+01 0. -1.
         -5    1    4    4    0  501  0.24115514532E+02  0.24696933276E+02  0.43850089763E+02  0.56003722435E+02  0.47000000000E+01 0. -1.
         12    1    5    5    0    0  0.17681915772E+01 -0.33066749164E+02  0.17074076109E+02  0.37256683651E+02  0.00000000000E+00 0.  1.
        -12    1    5    5    0    0 -0.35657681488E+01  0.16965465526E+02  0.56259197547E+02  0.58869678372E+02  0.00000000000E+00 0.  1.
<mgrwt>
<rscale>  0 0.12501155E+03</rscale>
<asrwt>0</asrwt>
<pdfrwt beam="1">  1       21 0.23557776E-01 0.12501155E+03</pdfrwt>
<pdfrwt beam="2">  1       21 0.39253579E-02 0.12501155E+03</pdfrwt>
<totfact> 0.67288143E+06</totfact>
</mgrwt>
</event>
<event>
 9    1  0.4458519E-002  0.1249966E+03  0.7818608E-02  0.1235075E+00
         21   -1    0    0  503  502  0.00000000000E+00  0.00000000000E+00  0.17159144075E+02  0.17159144075E+02  0.00000000000E+00 0. -1.
         21   -1    0    0  502  503 -0.00000000000E+00 -0.00000000000E+00 -0.22763596068E+03  0.22763596068E+03  0.00000000000E+00 0. -1.
         25    2    1    2    0    0 -0.53290705182E-14  0.17763568394E-14 -0.21047681660E+03  0.24479510475E+03  0.12499661189E+03 0.  0.
    9000006    2    3    3    0    0  0.99366005730E+01 -0.14024334168E+02 -0.11163271458E+03  0.12789558715E+03  0.60000002247E+02 0.  0.
    9000007    2    3    3    0    0 -0.99366005730E+01  0.14024334168E+02 -0.98844102025E+02  0.11689951760E+03  0.59999356079E+02 0.  0.
          5    1    4    4  501    0  0.29940940569E+02 -0.24184605079E+02 -0.79166624726E+02  0.88152138462E+02  0.47000000000E+01 0. -1.
         -5    1    4    4    0  501 -0.20004339996E+02  0.10160270911E+02 -0.32466089851E+02  0.39743448691E+02  0.47000000000E+01 0. -1.
         12    1    5    5    0    0 -0.23877289857E+02 -0.25433054461E+01 -0.90604263931E+02  0.93732203730E+02  0.00000000000E+00 0.  1.
        -12    1    5    5    0    0  0.13940689284E+02  0.16567639614E+02 -0.82398380937E+01  0.23167313869E+02  0.00000000000E+00 0.  1.
<mgrwt>
<rscale>  0 0.12499661E+03</rscale>
<asrwt>0</asrwt>
<pdfrwt beam="1">  1       21 0.26398685E-02 0.12499661E+03</pdfrwt>
<pdfrwt beam="2">  1       21 0.35020915E-01 0.12499661E+03</pdfrwt>
<totfact> 0.60376872E+06</totfact>
</mgrwt>
</event>
<event>
 9    1  0.4458519E-002  0.1250053E+03  0.7818608E-02  0.1235061E+00
         21   -1    0    0  503  502  0.00000000000E+00  0.00000000000E+00  0.14922364264E+03  0.14922364264E+03  0.00000000000E+00 0.  1.
         21   -1    0    0  502  503 -0.00000000000E+00 -0.00000000000E+00 -0.26179392118E+02  0.26179392118E+02  0.00000000000E+00 0.  1.
         25    2    1    2    0    0  0.35527136788E-14  0.88817841970E-15  0.12304425052E+03  0.17540303475E+03  0.12500534795E+03 0.  0.
    9000006    2    3    3    0    0 -0.14977076763E+02  0.66732859616E+01  0.52902101121E+02  0.81654859702E+02  0.60000318634E+02 0.  0.
    9000007    2    3    3    0    0  0.14977076763E+02 -0.66732859616E+01  0.70142149398E+02  0.93748175052E+02  0.59999613577E+02 0.  0.
          5    1    4    4  501    0  0.81709970100E+01  0.27451103719E+02  0.15924255558E+02  0.33105893775E+02  0.47000000000E+01 0.  1.
         -5    1    4    4    0  501 -0.23148073773E+02 -0.20777817758E+02  0.36977845562E+02  0.48548965928E+02  0.47000000000E+01 0.  1.
         12    1    5    5    0    0  0.40785510643E+01  0.56702671583E+01  0.75962856794E+02  0.76283301716E+02  0.00000000000E+00 0. -1.
        -12    1    5    5    0    0  0.10898525699E+02 -0.12343553120E+02 -0.58207073958E+01  0.17464873336E+02  0.00000000000E+00 0. -1.
<mgrwt>
<rscale>  0 0.12500535E+03</rscale>
<asrwt>0</asrwt>
<pdfrwt beam="1">  1       21 0.22957483E-01 0.12500535E+03</pdfrwt>
<pdfrwt beam="2">  1       21 0.40275989E-02 0.12500535E+03</pdfrwt>
<totfact> 0.67673655E+06</totfact>
</mgrwt>
</event>
<event>
 9    1  0.4458519E-002  0.1250007E+03  0.7818608E-02  0.1235068E+00
         21   -1    0    0  503  502  0.00000000000E+00  0.00000000000E+00  0.67991428354E+02  0.67991428354E+02  0.00000000000E+00 0.  1.
         21   -1    0    0  502  503 -0.00000000000E+00 -0.00000000000E+00 -0.57452695102E+02  0.57452695102E+02  0.00000000000E+00 0.  1.
         25    2    1    2    0    0  0.00000000000E+00  0.00000000000E+00  0.10538733252E+02  0.12544412346E+03  0.12500065284E+03 0.  0.
    9000006    2    3    3    0    0  0.10038051741E+02 -0.10491588760E+02  0.15071616104E+02  0.63545602126E+02  0.60000450166E+02 0.  0.
    9000007    2    3    3    0    0 -0.10038051741E+02  0.10491588760E+02 -0.45328828523E+01  0.61898521330E+02  0.60000366653E+02 0.  0.
          5    1    4    4  501    0  0.11222942273E+02  0.21937083277E+02 -0.43155177376E+01  0.25453953511E+02  0.47000000000E+01 0.  1.
         -5    1    4    4    0  501 -0.11848905322E+01 -0.32428672037E+02  0.19387133842E+02  0.38091648616E+02  0.47000000000E+01 0.  1.
         12    1    5    5    0    0  0.20827461018E+01 -0.24121941264E+02  0.31866897243E+01  0.24420501081E+02  0.00000000000E+00 0. -1.
        -12    1    5    5    0    0 -0.12120797843E+02  0.34613530023E+02 -0.77195725765E+01  0.37478020249E+02  0.00000000000E+00 0. -1.
<mgrwt>
<rscale>  0 0.12500065E+03</rscale>
<asrwt>0</asrwt>
<pdfrwt beam="1">  1       21 0.10460220E-01 0.12500065E+03</pdfrwt>
<pdfrwt beam="2">  1       21 0.88388761E-02 0.12500065E+03</pdfrwt>
<totfact> 0.73981988E+06</totfact>
</mgrwt>
</event>
<event>
 9    1  0.4458519E-002  0.1250009E+03  0.7818608E-02  0.1235068E+00
         21   -1    0    0  503  502  0.00000000000E+00  0.00000000000E+00  0.50963500530E+03  0.50963500530E+03  0.00000000000E+00 0.  1.
         21   -1    0    0  502  503 -0.00000000000E+00 -0.00000000000E+00 -0.76649142857E+01  0.76649142857E+01  0.00000000000E+00 0.  1.
         25    2    1    2    0    0 -0.35527136788E-14 -0.26645352591E-14  0.50197009102E+03  0.51729991959E+03  0.12500093812E+03 0.  0.
    9000006    2    3    3    0    0  0.16389894671E+02  0.60969694189E+01  0.24790759071E+03  0.25566362866E+03  0.59999298359E+02 0.  0.
    9000007    2    3    3    0    0 -0.16389894671E+02 -0.60969694189E+01  0.25406250031E+03  0.26163629093E+03  0.59999941551E+02 0.  0.
          5    1    4    4  501    0  0.28525306873E+01 -0.26041822242E+02  0.88359580959E+02  0.92281195182E+02  0.47000000000E+01 0. -1.
         -5    1    4    4    0  501  0.13537363984E+02  0.32138791660E+02  0.15954800975E+03  0.16338243347E+03  0.47000000000E+01 0. -1.
         12    1    5    5    0    0 -0.18687334810E+02  0.76345391036E+01  0.24916149877E+02  0.32067385212E+02  0.00000000000E+00 0. -1.
        -12    1    5    5    0    0  0.22974401390E+01 -0.13731508523E+02  0.22914635043E+03  0.22956890572E+03  0.00000000000E+00 0. -1.
<mgrwt>
<rscale>  0 0.12500094E+03</rscale>
<asrwt>0</asrwt>
<pdfrwt beam="1">  1       21 0.78405359E-01 0.12500094E+03</pdfrwt>
<pdfrwt beam="2">  1       21 0.11792180E-02 0.12500094E+03</pdfrwt>
<totfact> 0.41120183E+06</totfact>
</mgrwt>
</event>
<event>
 9    1  0.4458519E-002  0.1249969E+03  0.7818608E-02  0.1235074E+00
         21   -1    0    0  503  502  0.00000000000E+00  0.00000000000E+00  0.71410455798E+02  0.71410455798E+02  0.00000000000E+00 0.  1.
         21   -1    0    0  502  503 -0.00000000000E+00 -0.00000000000E+00 -0.54698637931E+02  0.54698637931E+02  0.00000000000E+00 0.  1.
         25    2    1    2    0    0  0.17763568394E-14 -0.35527136788E-14  0.16711817867E+02  0.12610909373E+03  0.12499687462E+03 0.  0.
    9000006    2    3    3    0    0 -0.10243173185E+02 -0.13068853010E+02  0.27954486444E+01  0.62317610828E+02  0.59999604751E+02 0.  0.
    9000007    2    3    3    0    0  0.10243173185E+02  0.13068853010E+02  0.13916369223E+02  0.63791482901E+02  0.59999753687E+02 0.  0.
          5    1    4    4  501    0  0.55995413472E+01 -0.33089311131E+02 -0.69434874931E+01  0.34591319619E+02  0.47000000000E+01 0. -1.
         -5    1    4    4    0  501 -0.15842714532E+02  0.20020458121E+02  0.97389361375E+01  0.27726291209E+02  0.47000000000E+01 0. -1.
         12    1    5    5    0    0  0.89307534503E+01  0.36630213658E+02  0.13928179745E+02  0.40193595271E+02  0.00000000000E+00 0.  1.
        -12    1    5    5    0    0  0.13124197343E+01 -0.23561360648E+02 -0.11810522478E-01  0.23597887630E+02  0.00000000000E+00 0.  1.
<mgrwt>
<rscale>  0 0.12499687E+03</rscale>
<asrwt>0</asrwt>
<pdfrwt beam="1">  1       21 0.10986224E-01 0.12499687E+03</pdfrwt>
<pdfrwt beam="2">  1       21 0.84151750E-02 0.12499687E+03</pdfrwt>
<totfact> 0.73896903E+06</totfact>
</mgrwt>
</event>
<event>
 9    1  0.4458519E-002  0.1250089E+03  0.7818608E-02  0.1235055E+00
         21   -1    0    0  503  502  0.00000000000E+00  0.00000000000E+00  0.20246759616E+02  0.20246759616E+02  0.00000000000E+00 0. -1.
         21   -1    0    0  502  503 -0.00000000000E+00 -0.00000000000E+00 -0.19295948861E+03  0.19295948861E+03  0.00000000000E+00 0. -1.
         25    2    1    2    0    0  0.88817841970E-15  0.17763568394E-14 -0.17271272900E+03  0.21320624823E+03  0.12500886979E+03 0.  0.
    9000006    2    3    3    0    0 -0.60109408497E+01  0.15599857411E+02 -0.77423370318E+02  0.99366291105E+02  0.59998288105E+02 0.  0.
    9000007    2    3    3    0    0  0.60109408497E+01 -0.15599857411E+02 -0.95289358678E+02  0.11383995712E+03  0.59999891661E+02 0.  0.
          5    1    4    4  501    0 -0.21707733820E+02  0.10419623311E+02 -0.78404885387E+02  0.82153577585E+02  0.47000000000E+01 0. -1.
         -5    1    4    4    0  501  0.15696792970E+02  0.51802341001E+01  0.98151506916E+00  0.17212713520E+02  0.47000000000E+01 0. -1.
         12    1    5    5    0    0 -0.67729847487E+00  0.22943020732E+02 -0.30773287261E+02  0.38390573613E+02  0.00000000000E+00 0. -1.
        -12    1    5    5    0    0  0.66882393246E+01 -0.38542878143E+02 -0.64516071418E+02  0.75449383509E+02  0.00000000000E+00 0. -1.
<mgrwt>
<rscale>  0 0.12500887E+03</rscale>
<asrwt>0</asrwt>
<pdfrwt beam="1">  1       21 0.31148863E-02 0.12500887E+03</pdfrwt>
<pdfrwt beam="2">  1       21 0.29686073E-01 0.12500887E+03</pdfrwt>
<totfact> 0.63509527E+06</totfact>
</mgrwt>
</event>
<event>
 9    1  0.4458519E-002  0.1250006E+03  0.7818608E-02  0.1235068E+00
         21   -1    0    0  503  502  0.00000000000E+00  0.00000000000E+00  0.25644084135E+01  0.25644084135E+01  0.00000000000E+00 0.  1.
         21   -1    0    0  502  503 -0.00000000000E+00 -0.00000000000E+00 -0.15232711897E+04  0.15232711897E+04  0.00000000000E+00 0.  1.
         25    2    1    2    0    0  0.00000000000E+00  0.00000000000E+00 -0.15207067813E+04  0.15258355981E+04  0.12500063128E+03 0.  0.
    9000006    2    3    3    0    0 -0.72287919774E+01  0.54025001879E+00 -0.56594663678E+03  0.56916454564E+03  0.60001141822E+02 0.  0.
    9000007    2    3    3    0    0  0.72287919774E+01 -0.54025001879E+00 -0.95476014449E+03  0.95667105246E+03  0.60000181763E+02 0.  0.
          5    1    4    4  501    0  0.12859988779E+02  0.24112994795E+02 -0.20611014507E+03  0.20796705924E+03  0.47000000000E+01 0.  1.
         -5    1    4    4    0  501 -0.20088780756E+02 -0.23572744776E+02 -0.35983649171E+03  0.36119748640E+03  0.47000000000E+01 0.  1.
         12    1    5    5    0    0  0.14579513247E+02 -0.73461067276E+01 -0.92725058125E+03  0.92739428935E+03  0.00000000000E+00 0.  1.
        -12    1    5    5    0    0 -0.73507212698E+01  0.68058567088E+01 -0.27509563233E+02  0.29276763107E+02  0.00000000000E+00 0.  1.
<mgrwt>
<rscale>  0 0.12500063E+03</rscale>
<asrwt>0</asrwt>
<pdfrwt beam="1">  1       21 0.39452458E-03 0.12500063E+03</pdfrwt>
<pdfrwt beam="2">  1       21 0.23434929E+00 0.12500063E+03</pdfrwt>
<totfact> 0.13613818E+06</totfact>
</mgrwt>
</event>
<event>
 9    1  0.4458519E-002  0.1250078E+03  0.7818608E-02  0.1235057E+00
         21   -1    0    0  503  502  0.00000000000E+00  0.00000000000E+00  0.13543496240E+02  0.13543496240E+02  0.00000000000E+00 0. -1.
         21   -1    0    0  502  503 -0.00000000000E+00 -0.00000000000E+00 -0.28845866828E+03  0.28845866828E+03  0.00000000000E+00 0. -1.
         25    2    1    2    0    0  0.35527136788E-14  0.00000000000E+00 -0.27491517204E+03  0.30200216452E+03  0.12500782198E+03 0.  0.
    9000006    2    3    3    0    0  0.99119658750E+01  0.89393948428E+01 -0.16483848755E+03  0.17592580042E+03  0.60000003576E+02 0.  0.
    9000007    2    3    3    0    0 -0.99119658750E+01 -0.89393948428E+01 -0.11007668449E+03  0.12607636410E+03  0.60001777206E+02 0.  0.
          5    1    4    4  501    0  0.49215624017E+01  0.18687983108E+02 -0.13314425182E+02  0.23933792158E+02  0.47000000000E+01 0.  1.
         -5    1    4    4    0  501  0.49904034733E+01 -0.97485882655E+01 -0.15152406237E+03  0.15199200827E+03  0.47000000000E+01 0.  1.
         12    1    5    5    0    0 -0.18931712543E+02 -0.28027337668E+02 -0.37536692449E+02  0.50526672922E+02  0.00000000000E+00 0. -1.
        -12    1    5    5    0    0  0.90197466684E+01  0.19087942825E+02 -0.72539992040E+02  0.75549691174E+02  0.00000000000E+00 0. -1.
<mgrwt>
<rscale>  0 0.12500782E+03</rscale>
<asrwt>0</asrwt>
<pdfrwt beam="1">  1       21 0.20836150E-02 0.12500782E+03</pdfrwt>
<pdfrwt beam="2">  1       21 0.44378253E-01 0.12500782E+03</pdfrwt>
<totfact> 0.55279334E+06</totfact>
</mgrwt>
</event>
<event>
 9    1  0.4458519E-002  0.1250007E+03  0.7818608E-02  0.1235068E+00
         21   -1    0    0  503  502  0.00000000000E+00  0.00000000000E+00  0.88564894504E+02  0.88564894504E+02  0.00000000000E+00 0.  1.
         21   -1    0    0  502  503 -0.00000000000E+00 -0.00000000000E+00 -0.44106602363E+02  0.44106602363E+02  0.00000000000E+00 0.  1.
         25    2    1    2    0    0  0.00000000000E+00  0.44408920985E-15  0.44458292141E+02  0.13267149687E+03  0.12500074536E+03 0.  0.
    9000006    2    3    3    0    0  0.15679414218E+02  0.44582342149E+00  0.30468652673E+02  0.69098682554E+02  0.60002052851E+02 0.  0.
    9000007    2    3    3    0    0 -0.15679414218E+02 -0.44582342149E+00  0.13989639468E+02  0.63572814314E+02  0.59997915952E+02 0.  0.
          5    1    4    4  501    0  0.48865708560E+01 -0.11130644303E+02 -0.15502234639E+02  0.20252878712E+02  0.47000000000E+01 0.  1.
         -5    1    4    4    0  501  0.10792843362E+02  0.11576467724E+02  0.45970887312E+02  0.48845803843E+02  0.47000000000E+01 0.  1.
         12    1    5    5    0    0 -0.25572723448E+02 -0.42098471371E+01 -0.16886358172E+02  0.30932767250E+02  0.00000000000E+00 0.  1.
        -12    1    5    5    0    0  0.98933092295E+01  0.37640237156E+01  0.30875997640E+02  0.32640047063E+02  0.00000000000E+00 0.  1.
<mgrwt>
<rscale>  0 0.12500075E+03</rscale>
<asrwt>0</asrwt>
<pdfrwt beam="1">  1       21 0.13625368E-01 0.12500075E+03</pdfrwt>
<pdfrwt beam="2">  1       21 0.67856311E-02 0.12500075E+03</pdfrwt>
<totfact> 0.73004908E+06</totfact>
</mgrwt>
</event>
<event>
 9    1  0.4458519E-002  0.1250356E+03  0.7818608E-02  0.1235014E+00
         21   -1    0    0  503  502  0.00000000000E+00  0.00000000000E+00  0.83057737359E+01  0.83057737359E+01  0.00000000000E+00 0. -1.
         21   -1    0    0  502  503 -0.00000000000E+00 -0.00000000000E+00 -0.47057341538E+03  0.47057341538E+03  0.00000000000E+00 0. -1.
         25    2    1    2    0    0 -0.35527136788E-14  0.17763568394E-14 -0.46226764164E+03  0.47887918912E+03  0.12503561595E+03 0.  0.
    9000006    2    3    3    0    0  0.60395915476E+01 -0.58912067120E+01 -0.29016804345E+03  0.29642661508E+03  0.60000514231E+02 0.  0.
    9000007    2    3    3    0    0 -0.60395915476E+01  0.58912067120E+01 -0.17209959819E+03  0.18245257403E+03  0.59995725595E+02 0.  0.
          5    1    4    4  501    0 -0.25740721340E+02 -0.68270428770E+01 -0.16482615727E+03  0.16702977391E+03  0.47000000000E+01 0.  1.
         -5    1    4    4    0  501  0.31780312888E+02  0.93583616499E+00 -0.12534188618E+03  0.12939684118E+03  0.47000000000E+01 0.  1.
         12    1    5    5    0    0 -0.25683235158E+02  0.22658677155E+02 -0.86219968134E+02  0.92773525985E+02  0.00000000000E+00 0.  1.
        -12    1    5    5    0    0  0.19643643611E+02 -0.16767470443E+02 -0.85879630060E+02  0.89679048047E+02  0.00000000000E+00 0.  1.
<mgrwt>
<rscale>  0 0.12503562E+03</rscale>
<asrwt>0</asrwt>
<pdfrwt beam="1">  1       21 0.12778113E-02 0.12503562E+03</pdfrwt>
<pdfrwt beam="2">  1       21 0.72395914E-01 0.12503562E+03</pdfrwt>
<totfact> 0.43174832E+06</totfact>
</mgrwt>
</event>
<event>
 9    1  0.4458519E-002  0.1250004E+03  0.7818608E-02  0.1235069E+00
         21   -1    0    0  503  502  0.00000000000E+00  0.00000000000E+00  0.43265116220E+02  0.43265116220E+02  0.00000000000E+00 0. -1.
         21   -1    0    0  502  503 -0.00000000000E+00 -0.00000000000E+00 -0.90286922851E+02  0.90286922851E+02  0.00000000000E+00 0. -1.
         25    2    1    2    0    0  0.35527136788E-14  0.17763568394E-14 -0.47021806631E+02  0.13355203907E+03  0.12500038736E+03 0.  0.
    9000006    2    3    3    0    0 -0.15847887208E+02  0.26551348067E+01 -0.16104542551E+02  0.64168106899E+02  0.59999869854E+02 0.  0.
    9000007    2    3    3    0    0  0.15847887208E+02 -0.26551348067E+01 -0.30917264080E+02  0.69383932172E+02  0.60000396296E+02 0.  0.
          5    1    4    4  501    0 -0.28301367612E+02  0.23689231848E+02 -0.89129337792E+01  0.38258038408E+02  0.47000000000E+01 0. -1.
         -5    1    4    4    0  501  0.12453480404E+02 -0.21034097041E+02 -0.71916087716E+01  0.25910068491E+02  0.47000000000E+01 0. -1.
         12    1    5    5    0    0 -0.22760803724E+02  0.27281513340E+01 -0.87292063925E+01  0.24529493271E+02  0.00000000000E+00 0.  1.
        -12    1    5    5    0    0  0.38608690933E+02 -0.53832861407E+01 -0.22188057688E+02  0.44854438901E+02  0.00000000000E+00 0.  1.
<mgrwt>
<rscale>  0 0.12500039E+03</rscale>
<asrwt>0</asrwt>
<pdfrwt beam="1">  1       21 0.66561718E-02 0.12500039E+03</pdfrwt>
<pdfrwt beam="2">  1       21 0.13890296E-01 0.12500039E+03</pdfrwt>
<totfact> 0.72888051E+06</totfact>
</mgrwt>
</event>
<event>
 9    1  0.4458519E-002  0.1250054E+03  0.7818608E-02  0.1235061E+00
         21   -1    0    0  503  502  0.00000000000E+00  0.00000000000E+00  0.28865191806E+02  0.28865191806E+02  0.00000000000E+00 0. -1.
         21   -1    0    0  502  503 -0.00000000000E+00 -0.00000000000E+00 -0.13533894487E+03  0.13533894487E+03  0.00000000000E+00 0. -1.
         25    2    1    2    0    0 -0.35527136788E-14  0.00000000000E+00 -0.10647375307E+03  0.16420413668E+03  0.12500535353E+03 0.  0.
    9000006    2    3    3    0    0  0.16165229327E+02  0.67172178447E+01 -0.52843374780E+02  0.81847021398E+02  0.60000641653E+02 0.  0.
    9000007    2    3    3    0    0 -0.16165229327E+02 -0.67172178447E+01 -0.53630378288E+02  0.82357115283E+02  0.60000344230E+02 0.  0.
          5    1    4    4  501    0 -0.24304832140E+01 -0.10277156083E+02  0.91651752512E+01  0.14751868465E+02  0.47000000000E+01 0. -1.
         -5    1    4    4    0  501  0.18595712541E+02  0.16994373928E+02 -0.62008550031E+02  0.67095152933E+02  0.47000000000E+01 0. -1.
         12    1    5    5    0    0  0.70381361798E+01 -0.21386139783E+02 -0.46082116170E+00  0.22519207176E+02  0.00000000000E+00 0. -1.
        -12    1    5    5    0    0 -0.23203365506E+02  0.14668921938E+02 -0.53169557126E+02  0.59837908107E+02  0.00000000000E+00 0. -1.
<mgrwt>
<rscale>  0 0.12500535E+03</rscale>
<asrwt>0</asrwt>
<pdfrwt beam="1">  1       21 0.44407988E-02 0.12500535E+03</pdfrwt>
<pdfrwt beam="2">  1       21 0.20821376E-01 0.12500535E+03</pdfrwt>
<totfact> 0.69000022E+06</totfact>
</mgrwt>
</event>
<event>
 9    1  0.4458519E-002  0.1249991E+03  0.7818608E-02  0.1235071E+00
         21   -1    0    0  503  502  0.00000000000E+00  0.00000000000E+00  0.26215027538E+01  0.26215027538E+01  0.00000000000E+00 0.  1.
         21   -1    0    0  502  503 -0.00000000000E+00 -0.00000000000E+00 -0.14900581413E+04  0.14900581413E+04  0.00000000000E+00 0.  1.
         25    2    1    2    0    0  0.00000000000E+00 -0.17763568394E-14 -0.14874366385E+04  0.14926796440E+04  0.12499906433E+03 0.  0.
    9000006    2    3    3    0    0 -0.15246600004E+02 -0.65057263744E+01 -0.81070161908E+03  0.81308779286E+03  0.59998836878E+02 0.  0.
    9000007    2    3    3    0    0  0.15246600004E+02  0.65057263744E+01 -0.67673501943E+03  0.67959185116E+03  0.60000119614E+02 0.  0.
          5    1    4    4  501    0 -0.28602563087E+02  0.13935018975E+02 -0.28704767063E+03  0.28884381001E+03  0.47000000000E+01 0.  1.
         -5    1    4    4    0  501  0.13355963083E+02 -0.20440745349E+02 -0.52365394845E+03  0.52424398285E+03  0.47000000000E+01 0.  1.
         12    1    5    5    0    0 -0.13897319039E+02 -0.46497933129E+00 -0.50973553995E+03  0.50992516350E+03  0.00000000000E+00 0. -1.
        -12    1    5    5    0    0  0.29143919043E+02  0.69707057057E+01 -0.16699947948E+03  0.16966668766E+03  0.00000000000E+00 0. -1.
<mgrwt>
<rscale>  0 0.12499906E+03</rscale>
<asrwt>0</asrwt>
<pdfrwt beam="1">  1       21 0.40330723E-03 0.12499906E+03</pdfrwt>
<pdfrwt beam="2">  1       21 0.22924022E+00 0.12499906E+03</pdfrwt>
<totfact> 0.14102391E+06</totfact>
</mgrwt>
</event>
<event>
 9    1  0.4458519E-002  0.1250106E+03  0.7818608E-02  0.1235053E+00
         21   -1    0    0  503  502  0.00000000000E+00  0.00000000000E+00  0.12913133458E+03  0.12913133458E+03  0.00000000000E+00 0.  1.
         21   -1    0    0  502  503 -0.00000000000E+00 -0.00000000000E+00 -0.30255350084E+02  0.30255350084E+02  0.00000000000E+00 0.  1.
         25    2    1    2    0    0 -0.35527136788E-14 -0.34000580129E-15  0.98875984492E+02  0.15938668466E+03  0.12501061930E+03 0.  0.
    9000006    2    3    3    0    0  0.94050458326E+01 -0.32209114249E-01  0.30596577465E+02  0.68005037553E+02  0.60000655459E+02 0.  0.
    9000007    2    3    3    0    0 -0.94050458326E+01  0.32209114249E-01  0.68279407028E+02  0.91381647108E+02  0.60000600660E+02 0.  0.
          5    1    4    4  501    0  0.37380805360E+01 -0.38569598370E+01  0.48104357128E+02  0.48630942413E+02  0.47000000000E+01 0. -1.
         -5    1    4    4    0  501  0.56669652967E+01  0.38247507227E+01 -0.17507779663E+02  0.19374095140E+02  0.47000000000E+01 0. -1.
         12    1    5    5    0    0  0.22548968672E+02  0.49978265608E-03  0.94802836241E+01  0.24460821041E+02  0.00000000000E+00 0. -1.
        -12    1    5    5    0    0 -0.31954014505E+02  0.31709331593E-01  0.58799123403E+02  0.66920826067E+02  0.00000000000E+00 0. -1.
<mgrwt>
<rscale>  0 0.12501062E+03</rscale>
<asrwt>0</asrwt>
<pdfrwt beam="1">  1       21 0.19866359E-01 0.12501062E+03</pdfrwt>
<pdfrwt beam="2">  1       21 0.46546693E-02 0.12501062E+03</pdfrwt>
<totfact> 0.69575727E+06</totfact>
</mgrwt>
</event>
<event>
 9    1  0.4458519E-002  0.1250188E+03  0.7818608E-02  0.1235040E+00
         21   -1    0    0  503  502  0.00000000000E+00  0.00000000000E+00  0.40205321827E+03  0.40205321827E+03  0.00000000000E+00 0. -1.
         21   -1    0    0  502  503 -0.00000000000E+00 -0.00000000000E+00 -0.97186752786E+01  0.97186752786E+01  0.00000000000E+00 0. -1.
         25    2    1    2    0    0  0.35527136788E-14 -0.17763568394E-14  0.39233454299E+03  0.41177189355E+03  0.12501879336E+03 0.  0.
    9000006    2    3    3    0    0 -0.17334537508E+02  0.23123331664E+01  0.19228171504E+03  0.20218339473E+03  0.60000284076E+02 0.  0.
    9000007    2    3    3    0    0  0.17334537508E+02 -0.23123331664E+01  0.20005282795E+03  0.20958849882E+03  0.60003098184E+02 0.  0.
          5    1    4    4  501    0  0.15469057811E+02  0.45535463230E+01  0.17433126379E+02  0.24208065372E+02  0.47000000000E+01 0. -1.
         -5    1    4    4    0  501 -0.32803595320E+02 -0.22412131566E+01  0.17484858866E+03  0.17797532936E+03  0.47000000000E+01 0. -1.
         12    1    5    5    0    0  0.23607491120E+02  0.15639267181E+02  0.17897083974E+03  0.18119730073E+03  0.00000000000E+00 0.  1.
        -12    1    5    5    0    0 -0.62729536115E+01 -0.17951600348E+02  0.21081988209E+02  0.28391198088E+02  0.00000000000E+00 0.  1.
<mgrwt>
<rscale>  0 0.12501879E+03</rscale>
<asrwt>0</asrwt>
<pdfrwt beam="1">  1       21 0.61854328E-01 0.12501879E+03</pdfrwt>
<pdfrwt beam="2">  1       21 0.14951811E-02 0.12501879E+03</pdfrwt>
<totfact> 0.47248031E+06</totfact>
</mgrwt>
</event>
<event>
 9    1  0.4458519E-002  0.1250007E+03  0.7818608E-02  0.1235068E+00
         21   -1    0    0  503  502  0.00000000000E+00  0.00000000000E+00  0.10245879501E+04  0.10245879501E+04  0.00000000000E+00 0. -1.
         21   -1    0    0  502  503 -0.00000000000E+00 -0.00000000000E+00 -0.38125526577E+01  0.38125526577E+01  0.00000000000E+00 0. -1.
         25    2    1    2    0    0 -0.17763568394E-14  0.35527136788E-14  0.10207753975E+04  0.10284005028E+04  0.12500072819E+03 0.  0.
    9000006    2    3    3    0    0 -0.12259948718E+02 -0.12026160321E+02  0.53796336941E+03  0.54157133154E+03  0.59999878738E+02 0.  0.
    9000007    2    3    3    0    0  0.12259948718E+02  0.12026160321E+02  0.48281202805E+03  0.48682917123E+03  0.60002105443E+02 0.  0.
          5    1    4    4  501    0  0.11653398964E+02 -0.24093054555E+02  0.40186289676E+03  0.40278052930E+03  0.47000000000E+01 0.  1.
         -5    1    4    4    0  501 -0.23913347683E+02  0.12066894234E+02  0.13610047264E+03  0.13879080224E+03  0.47000000000E+01 0.  1.
         12    1    5    5    0    0  0.21066944267E+02 -0.49070523277E+01  0.63502914992E+02  0.67085881643E+02  0.00000000000E+00 0. -1.
        -12    1    5    5    0    0 -0.88069955492E+01  0.16933212649E+02  0.41930911306E+03  0.41974328959E+03  0.00000000000E+00 0. -1.
<mgrwt>
<rscale>  0 0.12500073E+03</rscale>
<asrwt>0</asrwt>
<pdfrwt beam="1">  1       21 0.15762870E+00 0.12500073E+03</pdfrwt>
<pdfrwt beam="2">  1       21 0.58654738E-03 0.12500073E+03</pdfrwt>
<totfact> 0.22917416E+06</totfact>
</mgrwt>
</event>
<event>
 9    1  0.4458519E-002  0.1249987E+03  0.7818608E-02  0.1235071E+00
         21   -1    0    0  503  502  0.00000000000E+00  0.00000000000E+00  0.13690625612E+03  0.13690625612E+03  0.00000000000E+00 0.  1.
         21   -1    0    0  502  503 -0.00000000000E+00 -0.00000000000E+00 -0.28531712372E+02  0.28531712372E+02  0.00000000000E+00 0.  1.
         25    2    1    2    0    0  0.17763568394E-14  0.00000000000E+00  0.10837454375E+03  0.16543796850E+03  0.12499871874E+03 0.  0.
    9000006    2    3    3    0    0 -0.19810757047E+01  0.17001292873E+02  0.58983730714E+02  0.85862185422E+02  0.60002214760E+02 0.  0.
    9000007    2    3    3    0    0  0.19810757047E+01 -0.17001292873E+02  0.49390813038E+02  0.79575783075E+02  0.59999035151E+02 0.  0.
          5    1    4    4  501    0  0.10933644067E+02  0.15676110937E+02 -0.50805008581E+01  0.20326989833E+02  0.47000000000E+01 0. -1.
         -5    1    4    4    0  501 -0.12914719772E+02  0.13251819361E+01  0.64064231573E+02  0.65535195589E+02  0.47000000000E+01 0. -1.
         12    1    5    5    0    0 -0.18177302122E+02 -0.39663783263E+01  0.52190438400E+02  0.55407475397E+02  0.00000000000E+00 0.  1.
        -12    1    5    5    0    0  0.20158377827E+02 -0.13034914547E+02 -0.27996253614E+01  0.24168307678E+02  0.00000000000E+00 0.  1.
<mgrwt>
<rscale>  0 0.12499872E+03</rscale>
<asrwt>0</asrwt>
<pdfrwt beam="1">  1       21 0.21062501E-01 0.12499872E+03</pdfrwt>
<pdfrwt beam="2">  1       21 0.43894943E-02 0.12499872E+03</pdfrwt>
<totfact> 0.68863307E+06</totfact>
</mgrwt>
</event>
<event>
 9    1  0.4458519E-002  0.1250006E+03  0.7818608E-02  0.1235068E+00
         21   -1    0    0  503  502  0.00000000000E+00  0.00000000000E+00  0.25345850169E+02  0.25345850169E+02  0.00000000000E+00 0. -1.
         21   -1    0    0  502  503 -0.00000000000E+00 -0.00000000000E+00 -0.15411951100E+03  0.15411951100E+03  0.00000000000E+00 0. -1.
         25    2    1    2    0    0 -0.17763568394E-14  0.88817841970E-15 -0.12877366083E+03  0.17946536117E+03  0.12500064054E+03 0.  0.
    9000006    2    3    3    0    0 -0.10870645480E+02  0.65647887312E+01 -0.47098702123E+02  0.77327722199E+02  0.60000179121E+02 0.  0.
    9000007    2    3    3    0    0  0.10870645480E+02 -0.65647887312E+01 -0.81674958705E+02  0.10213763897E+03  0.60000258585E+02 0.  0.
          5    1    4    4  501    0 -0.24625668605E+02  0.23824937021E+02 -0.41605446770E+02  0.54103182709E+02  0.47000000000E+01 0. -1.
         -5    1    4    4    0  501  0.13755023126E+02 -0.17260148289E+02 -0.54932553530E+01  0.23224539490E+02  0.47000000000E+01 0. -1.
         12    1    5    5    0    0 -0.18651540316E+02  0.24761593264E+01 -0.49829999540E+01  0.19463853927E+02  0.00000000000E+00 0.  1.
        -12    1    5    5    0    0  0.29522185795E+02 -0.90409480576E+01 -0.76691958751E+02  0.82673785041E+02  0.00000000000E+00 0.  1.
<mgrwt>
<rscale>  0 0.12500064E+03</rscale>
<asrwt>0</asrwt>
<pdfrwt beam="1">  1       21 0.38993615E-02 0.12500064E+03</pdfrwt>
<pdfrwt beam="2">  1       21 0.23710695E-01 0.12500064E+03</pdfrwt>
<totfact> 0.67211829E+06</totfact>
</mgrwt>
</event>
<event>
 9    1  0.4458519E-002  0.1249997E+03  0.7818608E-02  0.1235070E+00
         21   -1    0    0  503  502  0.00000000000E+00  0.00000000000E+00  0.94323278123E+03  0.94323278123E+03  0.00000000000E+00 0.  1.
         21   -1    0    0  502  503 -0.00000000000E+00 -0.00000000000E+00 -0.41413213888E+01  0.41413213888E+01  0.00000000000E+00 0.  1.
         25    2    1    2    0    0  0.17763568394E-14  0.00000000000E+00  0.93909145984E+03  0.94737410262E+03  0.12499968146E+03 0.  0.
    9000006    2    3    3    0    0  0.20615102348E+01  0.18776516349E+01  0.33860773544E+03  0.34389383004E+03  0.59999936993E+02 0.  0.
    9000007    2    3    3    0    0 -0.20615102348E+01 -0.18776516349E+01  0.60048372440E+03  0.60348027258E+03  0.59999672680E+02 0.  0.
          5    1    4    4  501    0  0.12044387289E+02 -0.40732149233E+01  0.15697332866E+02  0.20740168854E+02  0.47000000000E+01 0.  1.
         -5    1    4    4    0  501 -0.99828770541E+01  0.59508665582E+01  0.32291040258E+03  0.32315366119E+03  0.47000000000E+01 0.  1.
         12    1    5    5    0    0 -0.91101077932E+01  0.25241361108E+02  0.17194162139E+03  0.17402310634E+03  0.00000000000E+00 0. -1.
        -12    1    5    5    0    0  0.70485975584E+01 -0.27119012743E+02  0.42854210301E+03  0.42945716624E+03  0.00000000000E+00 0. -1.
<mgrwt>
<rscale>  0 0.12499968E+03</rscale>
<asrwt>0</asrwt>
<pdfrwt beam="1">  1       21 0.14511256E+00 0.12499968E+03</pdfrwt>
<pdfrwt beam="2">  1       21 0.63712712E-03 0.12499968E+03</pdfrwt>
<totfact> 0.24982068E+06</totfact>
</mgrwt>
</event>
<event>
 9    1  0.4458519E-002  0.1250042E+03  0.7818608E-02  0.1235063E+00
         21   -1    0    0  503  502  0.00000000000E+00  0.00000000000E+00  0.19161995618E+03  0.19161995618E+03  0.00000000000E+00 0.  1.
         21   -1    0    0  502  503 -0.00000000000E+00 -0.00000000000E+00 -0.20386784459E+02  0.20386784459E+02  0.00000000000E+00 0.  1.
         25    2    1    2    0    0  0.00000000000E+00 -0.17763568394E-14  0.17123317173E+03  0.21200674064E+03  0.12500423584E+03 0.  0.
    9000006    2    3    3    0    0 -0.17828627322E+01  0.12623159576E+02  0.65258122183E+02  0.89559739814E+02  0.59998347707E+02 0.  0.
    9000007    2    3    3    0    0  0.17828627322E+01 -0.12623159576E+02  0.10597504954E+03  0.12244700083E+03  0.60000284409E+02 0.  0.
          5    1    4    4  501    0  0.21499021651E+02  0.86931263586E+01  0.60577278241E+02  0.65034414097E+02  0.47000000000E+01 0.  1.
         -5    1    4    4    0  501 -0.23281884383E+02  0.39300332174E+01  0.46808439413E+01  0.24525325717E+02  0.47000000000E+01 0.  1.
         12    1    5    5    0    0  0.26406571019E+02 -0.82032791204E+01  0.23588336489E+02  0.36345706757E+02  0.00000000000E+00 0. -1.
        -12    1    5    5    0    0 -0.24623708287E+02 -0.44198804556E+01  0.82386713055E+02  0.86101294073E+02  0.00000000000E+00 0. -1.
<mgrwt>
<rscale>  0 0.12500424E+03</rscale>
<asrwt>0</asrwt>
<pdfrwt beam="1">  1       21 0.29479992E-01 0.12500424E+03</pdfrwt>
<pdfrwt beam="2">  1       21 0.31364285E-02 0.12500424E+03</pdfrwt>
<totfact> 0.63642203E+06</totfact>
</mgrwt>
</event>
<event>
 9    1  0.4458519E-002  0.1249997E+03  0.7818608E-02  0.1235070E+00
         21   -1    0    0  503  502  0.00000000000E+00  0.00000000000E+00  0.63769638392E+03  0.63769638392E+03  0.00000000000E+00 0.  1.
         21   -1    0    0  502  503 -0.00000000000E+00 -0.00000000000E+00 -0.61255298830E+01  0.61255298830E+01  0.00000000000E+00 0.  1.
         25    2    1    2    0    0 -0.17763568394E-14  0.00000000000E+00  0.63157085404E+03  0.64382191381E+03  0.12499965210E+03 0.  0.
    9000006    2    3    3    0    0  0.41359579329E+01 -0.10973368990E+02  0.38267289166E+03  0.38752554073E+03  0.59999847799E+02 0.  0.
    9000007    2    3    3    0    0 -0.41359579329E+01  0.10973368990E+02  0.24889796239E+03  0.25629637308E+03  0.60000951636E+02 0.  0.
          5    1    4    4  501    0  0.14749766596E+02  0.27859381791E+01  0.25923040040E+02  0.30321792016E+02  0.47000000000E+01 0.  1.
         -5    1    4    4    0  501 -0.10613808663E+02 -0.13759307169E+02  0.35674985162E+03  0.35720374871E+03  0.47000000000E+01 0.  1.
         12    1    5    5    0    0 -0.17169483445E+02 -0.20398513496E+02  0.93420418142E+02  0.97150733607E+02  0.00000000000E+00 0. -1.
        -12    1    5    5    0    0  0.13033525512E+02  0.31371882486E+02  0.15547754424E+03  0.15914563947E+03  0.00000000000E+00 0. -1.
<mgrwt>
<rscale>  0 0.12499965E+03</rscale>
<asrwt>0</asrwt>
<pdfrwt beam="1">  1       21 0.98107084E-01 0.12499965E+03</pdfrwt>
<pdfrwt beam="2">  1       21 0.94238972E-03 0.12499965E+03</pdfrwt>
<totfact> 0.35183105E+06</totfact>
</mgrwt>
</event>
<event>
 9    1  0.4458519E-002  0.1250009E+03  0.7818608E-02  0.1235068E+00
         21   -1    0    0  503  502  0.00000000000E+00  0.00000000000E+00  0.22030408301E+03  0.22030408301E+03  0.00000000000E+00 0.  1.
         21   -1    0    0  502  503 -0.00000000000E+00 -0.00000000000E+00 -0.17731442568E+02  0.17731442568E+02  0.00000000000E+00 0.  1.
         25    2    1    2    0    0 -0.35527136788E-14  0.00000000000E+00  0.20257264044E+03  0.23803552558E+03  0.12500094712E+03 0.  0.
    9000006    2    3    3    0    0 -0.12237543604E+02 -0.85941245583E+01  0.83974492189E+02  0.10428502182E+03  0.60000283220E+02 0.  0.
    9000007    2    3    3    0    0  0.12237543604E+02  0.85941245583E+01  0.11859814825E+03  0.13375050376E+03  0.60000500306E+02 0.  0.
          5    1    4    4  501    0 -0.34445741407E+02  0.16856726330E+01  0.35137879099E+02  0.49458175673E+02  0.47000000000E+01 0.  1.
         -5    1    4    4    0  501  0.22208197803E+02 -0.10279797191E+02  0.48836613090E+02  0.54826846143E+02  0.47000000000E+01 0.  1.
         12    1    5    5    0    0 -0.17709791019E+02  0.17662483453E+02  0.26308111449E+02  0.36300368424E+02  0.00000000000E+00 0. -1.
        -12    1    5    5    0    0  0.29947334624E+02 -0.90683588948E+01  0.92290036804E+02  0.97450135338E+02  0.00000000000E+00 0. -1.
<mgrwt>
<rscale>  0 0.12500095E+03</rscale>
<asrwt>0</asrwt>
<pdfrwt beam="1">  1       21 0.33892934E-01 0.12500095E+03</pdfrwt>
<pdfrwt beam="2">  1       21 0.27279144E-02 0.12500095E+03</pdfrwt>
<totfact> 0.61021823E+06</totfact>
</mgrwt>
</event>
<event>
 9    1  0.4458519E-002  0.1249960E+03  0.7818608E-02  0.1235075E+00
         21   -1    0    0  503  502  0.00000000000E+00  0.00000000000E+00  0.28314749560E+02  0.28314749560E+02  0.00000000000E+00 0.  1.
         21   -1    0    0  502  503 -0.00000000000E+00 -0.00000000000E+00 -0.13794940153E+03  0.13794940153E+03  0.00000000000E+00 0.  1.
         25    2    1    2    0    0  0.17763568394E-14 -0.35527136788E-14 -0.10963465197E+03  0.16626415109E+03  0.12499604404E+03 0.  0.
    9000006    2    3    3    0    0  0.65722356850E+01 -0.11739256162E+02 -0.39939838534E+02  0.73322409267E+02  0.59999838179E+02 0.  0.
    9000007    2    3    3    0    0 -0.65722356850E+01  0.11739256162E+02 -0.69694813436E+02  0.92941741822E+02  0.59998299442E+02 0.  0.
          5    1    4    4  501    0 -0.54073881022E+01 -0.41308000565E+01  0.14595231939E+02  0.16775403141E+02  0.47000000000E+01 0. -1.
         -5    1    4    4    0  501  0.11979623787E+02 -0.76084561051E+01 -0.54535070472E+02  0.56547006126E+02  0.47000000000E+01 0. -1.
         12    1    5    5    0    0 -0.17119695690E+02  0.33303641390E+02 -0.40900550385E+02  0.55453327512E+02  0.00000000000E+00 0.  1.
        -12    1    5    5    0    0  0.10547460005E+02 -0.21564385228E+02 -0.28794263051E+02  0.37488414310E+02  0.00000000000E+00 0.  1.
<mgrwt>
<rscale>  0 0.12499604E+03</rscale>
<asrwt>0</asrwt>
<pdfrwt beam="1">  1       21 0.43561154E-02 0.12499604E+03</pdfrwt>
<pdfrwt beam="2">  1       21 0.21222985E-01 0.12499604E+03</pdfrwt>
<totfact> 0.68768982E+06</totfact>
</mgrwt>
</event>
<event>
 9    1  0.4458519E-002  0.1250012E+03  0.7818608E-02  0.1235067E+00
         21   -1    0    0  503  502  0.00000000000E+00  0.00000000000E+00  0.10489829945E+02  0.10489829945E+02  0.00000000000E+00 0. -1.
         21   -1    0    0  502  503 -0.00000000000E+00 -0.00000000000E+00 -0.37239172048E+03  0.37239172048E+03  0.00000000000E+00 0. -1.
         25    2    1    2    0    0  0.00000000000E+00  0.00000000000E+00 -0.36190189053E+03  0.38288155042E+03  0.12500121312E+03 0.  0.
    9000006    2    3    3    0    0 -0.61743436264E-01  0.16876568404E+02 -0.16674745277E+03  0.17801494851E+03  0.59998220928E+02 0.  0.
    9000007    2    3    3    0    0  0.61743436264E-01 -0.16876568404E+02 -0.19515443776E+03  0.20486660191E+03  0.60002063523E+02 0.  0.
          5    1    4    4  501    0  0.19359028351E+02  0.39760048399E+01 -0.17287724495E+02  0.26674632357E+02  0.47000000000E+01 0.  1.
         -5    1    4    4    0  501 -0.19420771788E+02  0.12900563564E+02 -0.14945972828E+03  0.15134031616E+03  0.47000000000E+01 0.  1.
         12    1    5    5    0    0 -0.27126708946E+02 -0.21481766783E+02 -0.10144116969E+03  0.10718038790E+03  0.00000000000E+00 0. -1.
        -12    1    5    5    0    0  0.27188452382E+02  0.46051983791E+01 -0.93713268074E+02  0.97686214013E+02  0.00000000000E+00 0. -1.
<mgrwt>
<rscale>  0 0.12500121E+03</rscale>
<asrwt>0</asrwt>
<pdfrwt beam="1">  1       21 0.16138203E-02 0.12500121E+03</pdfrwt>
<pdfrwt beam="2">  1       21 0.57291024E-01 0.12500121E+03</pdfrwt>
<totfact> 0.49196429E+06</totfact>
</mgrwt>
</event>
<event>
 9    1  0.4458519E-002  0.1249967E+03  0.7818608E-02  0.1235075E+00
         21   -1    0    0  503  502  0.00000000000E+00  0.00000000000E+00  0.67187021019E+02  0.67187021019E+02  0.00000000000E+00 0.  1.
         21   -1    0    0  502  503 -0.00000000000E+00 -0.00000000000E+00 -0.58136840658E+02  0.58136840658E+02  0.00000000000E+00 0.  1.
         25    2    1    2    0    0 -0.88817841970E-15 -0.17763568394E-14  0.90501803608E+01  0.12532386168E+03  0.12499665812E+03 0.  0.
    9000006    2    3    3    0    0  0.16853661905E+01 -0.15383045934E+02 -0.36547358013E+01  0.62071376344E+02  0.60000167550E+02 0.  0.
    9000007    2    3    3    0    0 -0.16853661905E+01  0.15383045934E+02  0.12704916162E+02  0.63252485334E+02  0.59999862040E+02 0.  0.
          5    1    4    4  501    0 -0.16799448948E+02 -0.23608359641E+02 -0.20101686100E+02  0.35577294922E+02  0.47000000000E+01 0.  1.
         -5    1    4    4    0  501  0.18484815139E+02  0.82253137071E+01  0.16446950298E+02  0.26494081422E+02  0.47000000000E+01 0.  1.
         12    1    5    5    0    0 -0.45554956223E+01  0.38210582885E+02  0.41422256114E+01  0.38703478110E+02  0.00000000000E+00 0. -1.
        -12    1    5    5    0    0  0.28701294317E+01 -0.22827536951E+02  0.85626905508E+01  0.24549007224E+02  0.00000000000E+00 0. -1.
<mgrwt>
<rscale>  0 0.12499666E+03</rscale>
<asrwt>0</asrwt>
<pdfrwt beam="1">  1       21 0.10336465E-01 0.12499666E+03</pdfrwt>
<pdfrwt beam="2">  1       21 0.89441293E-02 0.12499666E+03</pdfrwt>
<totfact> 0.74006173E+06</totfact>
</mgrwt>
</event>
<event>
 9    1  0.4458519E-002  0.1249992E+03  0.7818608E-02  0.1235071E+00
         21   -1    0    0  503  502  0.00000000000E+00  0.00000000000E+00  0.54908466212E+02  0.54908466212E+02  0.00000000000E+00 0. -1.
         21   -1    0    0  502  503 -0.00000000000E+00 -0.00000000000E+00 -0.71140177090E+02  0.71140177090E+02  0.00000000000E+00 0. -1.
         25    2    1    2    0    0  0.35527136788E-14  0.00000000000E+00 -0.16231710878E+02  0.12604864330E+03  0.12499916816E+03 0.  0.
    9000006    2    3    3    0    0 -0.79532937278E+01 -0.11823855019E+02  0.21285415492E+01  0.61704357813E+02  0.59998655446E+02 0.  0.
    9000007    2    3    3    0    0  0.79532937278E+01  0.11823855019E+02 -0.18360252427E+02  0.64344285490E+02  0.60000248144E+02 0.  0.
          5    1    4    4  501    0 -0.18982115050E+02 -0.29569862722E+02  0.12908581549E+02  0.37728224856E+02  0.47000000000E+01 0.  1.
         -5    1    4    4    0  501  0.11028821322E+02  0.17746007703E+02 -0.10780040000E+02  0.23976132957E+02  0.47000000000E+01 0.  1.
         12    1    5    5    0    0  0.32923116329E+02  0.13620324707E+02 -0.50315151184E+01  0.35982787251E+02  0.00000000000E+00 0. -1.
        -12    1    5    5    0    0 -0.24969822601E+02 -0.17964696881E+01 -0.13328737309E+02  0.28361498239E+02  0.00000000000E+00 0. -1.
<mgrwt>
<rscale>  0 0.12499917E+03</rscale>
<asrwt>0</asrwt>
<pdfrwt beam="1">  1       21 0.84474563E-02 0.12499917E+03</pdfrwt>
<pdfrwt beam="2">  1       21 0.10944643E-01 0.12499917E+03</pdfrwt>
<totfact> 0.73900903E+06</totfact>
</mgrwt>
</event>
<event>
 9    1  0.4458519E-002  0.1250333E+03  0.7818608E-02  0.1235017E+00
         21   -1    0    0  503  502  0.00000000000E+00  0.00000000000E+00  0.14164335774E+02  0.14164335774E+02  0.00000000000E+00 0. -1.
         21   -1    0    0  502  503 -0.00000000000E+00 -0.00000000000E+00 -0.27592772035E+03  0.27592772035E+03  0.00000000000E+00 0. -1.
         25    2    1    2    0    0  0.00000000000E+00  0.00000000000E+00 -0.26176338457E+03  0.29009205612E+03  0.12503332164E+03 0.  0.
    9000006    2    3    3    0    0 -0.12147466317E+02  0.12288496816E+02 -0.12357597702E+03  0.13845322240E+03  0.59997538312E+02 0.  0.
    9000007    2    3    3    0    0  0.12147466317E+02 -0.12288496816E+02 -0.13818740755E+03  0.15163883372E+03  0.60000068293E+02 0.  0.
          5    1    4    4  501    0 -0.41475925016E+01 -0.75722263831E+01  0.27753646856E+01  0.10214391078E+02  0.47000000000E+01 0. -1.
         -5    1    4    4    0  501 -0.79998738157E+01  0.19860723199E+02 -0.12635134171E+03  0.12823883132E+03  0.47000000000E+01 0. -1.
         12    1    5    5    0    0 -0.24425416452E+02 -0.68115638816E+01 -0.60476351106E+02  0.65577339184E+02  0.00000000000E+00 0. -1.
        -12    1    5    5    0    0  0.36572882770E+02 -0.54769329340E+01 -0.77711056447E+02  0.86061494541E+02  0.00000000000E+00 0. -1.
<mgrwt>
<rscale>  0 0.12503332E+03</rscale>
<asrwt>0</asrwt>
<pdfrwt beam="1">  1       21 0.21791286E-02 0.12503332E+03</pdfrwt>
<pdfrwt beam="2">  1       21 0.42450417E-01 0.12503332E+03</pdfrwt>
<totfact> 0.56242617E+06</totfact>
</mgrwt>
</event>
<event>
 9    1  0.4458519E-002  0.1249989E+03  0.7818608E-02  0.1235071E+00
         21   -1    0    0  503  502  0.00000000000E+00  0.00000000000E+00  0.21046314580E+02  0.21046314580E+02  0.00000000000E+00 0.  1.
         21   -1    0    0  502  503 -0.00000000000E+00 -0.00000000000E+00 -0.18559943425E+03  0.18559943425E+03  0.00000000000E+00 0.  1.
         25    2    1    2    0    0 -0.17763568394E-14 -0.35527136788E-14 -0.16455311967E+03  0.20664574883E+03  0.12499894526E+03 0.  0.
    9000006    2    3    3    0    0 -0.77366346529E+01 -0.14438239689E+02 -0.72092756466E+02  0.95213854628E+02  0.59999952475E+02 0.  0.
    9000007    2    3    3    0    0  0.77366346529E+01  0.14438239689E+02 -0.92460363199E+02  0.11143189420E+03  0.59998583321E+02 0.  0.
          5    1    4    4  501    0 -0.72209725547E+01 -0.37565637502E+02 -0.42861813569E+02  0.57641518266E+02  0.47000000000E+01 0. -1.
         -5    1    4    4    0  501 -0.51566209818E+00  0.23127397813E+02 -0.29230942898E+02  0.37572336362E+02  0.47000000000E+01 0. -1.
         12    1    5    5    0    0 -0.19749779002E+02 -0.60503650725E+01 -0.11800602620E+02  0.23788966146E+02  0.00000000000E+00 0.  1.
        -12    1    5    5    0    0  0.27486413655E+02  0.20488604762E+02 -0.80659760580E+02  0.87642928051E+02  0.00000000000E+00 0.  1.
<mgrwt>
<rscale>  0 0.12499895E+03</rscale>
<asrwt>0</asrwt>
<pdfrwt beam="1">  1       21 0.32378945E-02 0.12499895E+03</pdfrwt>
<pdfrwt beam="2">  1       21 0.28553759E-01 0.12499895E+03</pdfrwt>
<totfact> 0.64215892E+06</totfact>
</mgrwt>
</event>
<event>
 9    1  0.4458519E-002  0.1250007E+03  0.7818608E-02  0.1235068E+00
         21   -1    0    0  503  502  0.00000000000E+00  0.00000000000E+00  0.12047524350E+03  0.12047524350E+03  0.00000000000E+00 0.  1.
         21   -1    0    0  502  503 -0.00000000000E+00 -0.00000000000E+00 -0.32424031369E+02  0.32424031369E+02  0.00000000000E+00 0.  1.
         25    2    1    2    0    0  0.71054273576E-14 -0.44408920985E-15  0.88051212128E+02  0.15289927487E+03  0.12500068919E+03 0.  0.
    9000006    2    3    3    0    0 -0.15109567023E+02  0.29932244470E+01  0.54188696881E+02  0.82302153411E+02  0.59999759818E+02 0.  0.
    9000007    2    3    3    0    0  0.15109567023E+02 -0.29932244470E+01  0.33862515247E+02  0.70597121455E+02  0.60000210088E+02 0.  0.
          5    1    4    4  501    0  0.18252667999E+02  0.96271934155E+01  0.39786705991E+02  0.45065671145E+02  0.47000000000E+01 0. -1.
         -5    1    4    4    0  501 -0.33362235022E+02 -0.66339689684E+01  0.14401990891E+02  0.37236482266E+02  0.47000000000E+01 0. -1.
         12    1    5    5    0    0  0.28297966404E+02 -0.65469271258E+01  0.44599369770E+02  0.53223499897E+02  0.00000000000E+00 0.  1.
        -12    1    5    5    0    0 -0.13188399381E+02  0.35537026787E+01 -0.10736854523E+02  0.17373621557E+02  0.00000000000E+00 0.  1.
<mgrwt>
<rscale>  0 0.12500069E+03</rscale>
<asrwt>0</asrwt>
<pdfrwt beam="1">  1       21 0.18534653E-01 0.12500069E+03</pdfrwt>
<pdfrwt beam="2">  1       21 0.49883126E-02 0.12500069E+03</pdfrwt>
<totfact> 0.70395637E+06</totfact>
</mgrwt>
</event>
<event>
 9    1  0.4458519E-002  0.1250000E+03  0.7818608E-02  0.1235069E+00
         21   -1    0    0  503  502  0.00000000000E+00  0.00000000000E+00  0.45184749757E+02  0.45184749757E+02  0.00000000000E+00 0. -1.
         21   -1    0    0  502  503 -0.00000000000E+00 -0.00000000000E+00 -0.86450566003E+02  0.86450566003E+02  0.00000000000E+00 0. -1.
         25    2    1    2    0    0  0.00000000000E+00  0.00000000000E+00 -0.41265816247E+02  0.13163531576E+03  0.12499995506E+03 0.  0.
    9000006    2    3    3    0    0  0.11528908777E+02 -0.13063830060E+02 -0.18884663239E+02  0.65270010106E+02  0.59999702667E+02 0.  0.
    9000007    2    3    3    0    0 -0.11528908777E+02  0.13063830060E+02 -0.22381153008E+02  0.66365305655E+02  0.59998819915E+02 0.  0.
          5    1    4    4  501    0 -0.21418275668E+02 -0.40166972994E+01 -0.21120648949E+02  0.30709089889E+02  0.47000000000E+01 0. -1.
         -5    1    4    4    0  501  0.32947184446E+02 -0.90471327603E+01  0.22359857101E+01  0.34560920216E+02  0.47000000000E+01 0. -1.
         12    1    5    5    0    0 -0.34733607966E+02  0.38649689637E+01 -0.22200414213E+02  0.41403138754E+02  0.00000000000E+00 0. -1.
        -12    1    5    5    0    0  0.23204699188E+02  0.91988610961E+01 -0.18073879440E+00  0.24962166901E+02  0.00000000000E+00 0. -1.
<mgrwt>
<rscale>  0 0.12499996E+03</rscale>
<asrwt>0</asrwt>
<pdfrwt beam="1">  1       21 0.69514999E-02 0.12499996E+03</pdfrwt>
<pdfrwt beam="2">  1       21 0.13300087E-01 0.12499996E+03</pdfrwt>
<totfact> 0.73145269E+06</totfact>
</mgrwt>
</event>
<event>
 9    1  0.4458519E-002  0.1250015E+03  0.7818608E-02  0.1235067E+00
         21   -1    0    0  503  502  0.00000000000E+00  0.00000000000E+00  0.69631090586E+01  0.69631090586E+01  0.00000000000E+00 0. -1.
         21   -1    0    0  502  503 -0.00000000000E+00 -0.00000000000E+00 -0.56100589425E+03  0.56100589425E+03  0.00000000000E+00 0. -1.
         25    2    1    2    0    0  0.00000000000E+00  0.00000000000E+00 -0.55404278519E+03  0.56796900331E+03  0.12500152358E+03 0.  0.
    9000006    2    3    3    0    0 -0.14973233049E+02 -0.38360559352E+00 -0.23587883316E+03  0.24385066452E+03  0.59999814924E+02 0.  0.
    9000007    2    3    3    0    0  0.14973233049E+02  0.38360559352E+00 -0.31816395203E+03  0.32411833879E+03  0.60000435899E+02 0.  0.
          5    1    4    4  501    0 -0.16113794794E+02  0.27984368584E+02 -0.11089045065E+03  0.11559221995E+03  0.47000000000E+01 0. -1.
         -5    1    4    4    0  501  0.11405617450E+01 -0.28367974177E+02 -0.12498838251E+03  0.12825844456E+03  0.47000000000E+01 0. -1.
         12    1    5    5    0    0  0.46273698404E+00 -0.25160038187E+02 -0.22572945459E+03  0.22712777971E+03  0.00000000000E+00 0.  1.
        -12    1    5    5    0    0  0.14510496065E+02  0.25543643780E+02 -0.92434497446E+02  0.96990559086E+02  0.00000000000E+00 0.  1.
<mgrwt>
<rscale>  0 0.12500152E+03</rscale>
<asrwt>0</asrwt>
<pdfrwt beam="1">  1       21 0.10712477E-02 0.12500152E+03</pdfrwt>
<pdfrwt beam="2">  1       21 0.86308584E-01 0.12500152E+03</pdfrwt>
<totfact> 0.38580995E+06</totfact>
</mgrwt>
</event>
<event>
 9    1  0.4458519E-002  0.1250168E+03  0.7818608E-02  0.1235043E+00
         21   -1    0    0  503  502  0.00000000000E+00  0.00000000000E+00  0.18784996459E+03  0.18784996459E+03  0.00000000000E+00 0.  1.
         21   -1    0    0  502  503 -0.00000000000E+00 -0.00000000000E+00 -0.20800115353E+02  0.20800115353E+02  0.00000000000E+00 0.  1.
         25    2    1    2    0    0  0.35527136788E-14  0.35527136788E-14  0.16704984924E+03  0.20865007994E+03  0.12501681379E+03 0.  0.
    9000006    2    3    3    0    0  0.14601013619E+01 -0.10896986325E+02  0.60742069953E+02  0.86084243500E+02  0.60000180915E+02 0.  0.
    9000007    2    3    3    0    0 -0.14601013619E+01  0.10896986325E+02  0.10630777928E+03  0.12256583644E+03  0.60001367650E+02 0.  0.
          5    1    4    4  501    0  0.28289110183E+02  0.55094833323E+01  0.29282754709E+02  0.41354538867E+02  0.47000000000E+01 0.  1.
         -5    1    4    4    0  501 -0.26829008821E+02 -0.16406469657E+02  0.31459315243E+02  0.44729704633E+02  0.47000000000E+01 0.  1.
         12    1    5    5    0    0  0.14587249146E+02  0.27732575306E+02  0.32353167867E+02  0.45040104815E+02  0.00000000000E+00 0. -1.
        -12    1    5    5    0    0 -0.16047350508E+02 -0.16835588981E+02  0.73954611417E+02  0.77525731628E+02  0.00000000000E+00 0. -1.
<mgrwt>
<rscale>  0 0.12501681E+03</rscale>
<asrwt>0</asrwt>
<pdfrwt beam="1">  1       21 0.28899993E-01 0.12501681E+03</pdfrwt>
<pdfrwt beam="2">  1       21 0.32000179E-02 0.12501681E+03</pdfrwt>
<totfact> 0.63974628E+06</totfact>
</mgrwt>
</event>
<event>
 9    1  0.4458519E-002  0.1250000E+03  0.7818608E-02  0.1235069E+00
         21   -1    0    0  503  502  0.00000000000E+00  0.00000000000E+00  0.10740363327E+02  0.10740363327E+02  0.00000000000E+00 0. -1.
         21   -1    0    0  502  503 -0.00000000000E+00 -0.00000000000E+00 -0.36369828397E+03  0.36369828397E+03  0.00000000000E+00 0. -1.
         25    2    1    2    0    0  0.71054273576E-14 -0.35527136788E-14 -0.35295792065E+03  0.37443864730E+03  0.12500002738E+03 0.  0.
    9000006    2    3    3    0    0  0.15108799136E+02 -0.39719001088E+01 -0.20010835458E+03  0.20949322467E+03  0.60000048395E+02 0.  0.
    9000007    2    3    3    0    0 -0.15108799136E+02  0.39719001088E+01 -0.15284956607E+03  0.16494542263E+03  0.59999589988E+02 0.  0.
          5    1    4    4  501    0  0.17746317876E+02 -0.15422153730E+02 -0.19393693828E+03  0.19541340961E+03  0.47000000000E+01 0. -1.
         -5    1    4    4    0  501 -0.26375187395E+01  0.11450253621E+02 -0.61714163007E+01  0.14079815064E+02  0.47000000000E+01 0. -1.
         12    1    5    5    0    0  0.12296407657E+02 -0.14811051119E+02 -0.10464179779E+03  0.10639771953E+03  0.00000000000E+00 0. -1.
        -12    1    5    5    0    0 -0.27405206794E+02  0.18782951228E+02 -0.48207768274E+02  0.58547703100E+02  0.00000000000E+00 0. -1.
<mgrwt>
<rscale>  0 0.12500003E+03</rscale>
<asrwt>0</asrwt>
<pdfrwt beam="1">  1       21 0.16523637E-02 0.12500003E+03</pdfrwt>
<pdfrwt beam="2">  1       21 0.55953578E-01 0.12500003E+03</pdfrwt>
<totfact> 0.49782645E+06</totfact>
</mgrwt>
</event>
<event>
 9    1  0.4458519E-002  0.1249998E+03  0.7818608E-02  0.1235070E+00
         21   -1    0    0  503  502  0.00000000000E+00  0.00000000000E+00  0.71782342228E+02  0.71782342228E+02  0.00000000000E+00 0.  1.
         21   -1    0    0  502  503 -0.00000000000E+00 -0.00000000000E+00 -0.54417836861E+02  0.54417836861E+02  0.00000000000E+00 0.  1.
         25    2    1    2    0    0 -0.17763568394E-14  0.00000000000E+00  0.17364505367E+02  0.12620017909E+03  0.12499983662E+03 0.  0.
    9000006    2    3    3    0    0 -0.13184743775E+02  0.91179670417E+01  0.15947308833E+01  0.62125157866E+02  0.60000144016E+02 0.  0.
    9000007    2    3    3    0    0  0.13184743775E+02 -0.91179670417E+01  0.15769774484E+02  0.64075021223E+02  0.59999564716E+02 0.  0.
          5    1    4    4  501    0  0.57020287420E+01 -0.18913693616E+02 -0.13939428294E+02  0.24630034494E+02  0.47000000000E+01 0. -1.
         -5    1    4    4    0  501 -0.18886772517E+02  0.28031660658E+02  0.15534159177E+02  0.37495123372E+02  0.47000000000E+01 0. -1.
         12    1    5    5    0    0 -0.15785233197E+02 -0.23906265324E+02  0.12913725285E+02  0.31423675939E+02  0.00000000000E+00 0.  1.
        -12    1    5    5    0    0  0.28969976972E+02  0.14788298282E+02  0.28560491990E+01  0.32651345284E+02  0.00000000000E+00 0.  1.
<mgrwt>
<rscale>  0 0.12499984E+03</rscale>
<asrwt>0</asrwt>
<pdfrwt beam="1">  1       21 0.11043437E-01 0.12499984E+03</pdfrwt>
<pdfrwt beam="2">  1       21 0.83719748E-02 0.12499984E+03</pdfrwt>
<totfact> 0.73878793E+06</totfact>
</mgrwt>
</event>
<event>
 9    1  0.4458519E-002  0.1250158E+03  0.7818608E-02  0.1235045E+00
         21   -1    0    0  503  502  0.00000000000E+00  0.00000000000E+00  0.76875940450E+02  0.76875940450E+02  0.00000000000E+00 0. -1.
         21   -1    0    0  502  503 -0.00000000000E+00 -0.00000000000E+00 -0.50825218754E+02  0.50825218754E+02  0.00000000000E+00 0. -1.
         25    2    1    2    0    0  0.00000000000E+00  0.00000000000E+00  0.26050721697E+02  0.12770115920E+03  0.12501578285E+03 0.  0.
    9000006    2    3    3    0    0  0.59054378348E+01 -0.16171455474E+02  0.96472083253E+01  0.63161767636E+02  0.59999584118E+02 0.  0.
    9000007    2    3    3    0    0 -0.59054378348E+01  0.16171455474E+02  0.16403513371E+02  0.64539391568E+02  0.59998897030E+02 0.  0.
          5    1    4    4  501    0  0.72689432941E+01  0.10714151897E+02 -0.19067353201E+02  0.23522001309E+02  0.47000000000E+01 0.  1.
         -5    1    4    4    0  501 -0.13635054593E+01 -0.26885607371E+02  0.28714561527E+02  0.39639766327E+02  0.47000000000E+01 0.  1.
         12    1    5    5    0    0  0.59613852576E+01 -0.47477329656E+00 -0.21042884036E+02  0.21876162653E+02  0.00000000000E+00 0.  1.
        -12    1    5    5    0    0 -0.11866823092E+02  0.16646228771E+02  0.37446397407E+02  0.42663228914E+02  0.00000000000E+00 0.  1.
<mgrwt>
<rscale>  0 0.12501578E+03</rscale>
<asrwt>0</asrwt>
<pdfrwt beam="1">  1       21 0.11827068E-01 0.12501578E+03</pdfrwt>
<pdfrwt beam="2">  1       21 0.78192644E-02 0.12501578E+03</pdfrwt>
<totfact> 0.73644292E+06</totfact>
</mgrwt>
</event>
<event>
 9    1  0.4458519E-002  0.1249978E+03  0.7818608E-02  0.1235073E+00
         21   -1    0    0  503  502  0.00000000000E+00  0.00000000000E+00  0.53597390766E+02  0.53597390766E+02  0.00000000000E+00 0. -1.
         21   -1    0    0  502  503 -0.00000000000E+00 -0.00000000000E+00 -0.72878792198E+02  0.72878792198E+02  0.00000000000E+00 0. -1.
         25    2    1    2    0    0  0.35527136788E-14 -0.17763568394E-14 -0.19281401431E+02  0.12647618296E+03  0.12499780964E+03 0.  0.
    9000006    2    3    3    0    0  0.11003927695E+02 -0.11021643790E+02 -0.17715620593E+02  0.64470455486E+02  0.60000278008E+02 0.  0.
    9000007    2    3    3    0    0 -0.11003927695E+02  0.11021643790E+02 -0.15657808382E+01  0.62005727478E+02  0.59997462562E+02 0.  0.
          5    1    4    4  501    0 -0.28402863947E+00  0.24202182152E+02 -0.82830178851E+01  0.26010088014E+02  0.47000000000E+01 0. -1.
         -5    1    4    4    0  501  0.11287956335E+02 -0.35223825942E+02 -0.94326027080E+01  0.38460367472E+02  0.47000000000E+01 0. -1.
         12    1    5    5    0    0 -0.33571191620E+02  0.14928200364E+02 -0.91802616568E+01  0.37870216225E+02  0.00000000000E+00 0.  1.
        -12    1    5    5    0    0  0.22567263925E+02 -0.39065565735E+01  0.76144808186E+01  0.24135511253E+02  0.00000000000E+00 0.  1.
<mgrwt>
<rscale>  0 0.12499781E+03</rscale>
<asrwt>0</asrwt>
<pdfrwt beam="1">  1       21 0.82457525E-02 0.12499781E+03</pdfrwt>
<pdfrwt beam="2">  1       21 0.11212122E-01 0.12499781E+03</pdfrwt>
<totfact> 0.73844761E+06</totfact>
</mgrwt>
</event>
<event>
 8    1  0.4458519E-002  0.1250655E+03  0.7818608E-02  0.1234967E+00
         21   -1    0    0  503  502  0.00000000000E+00  0.00000000000E+00  0.83617767352E+03  0.83617767352E+03  0.00000000000E+00 0. -1.
         21   -1    0    0  502  503 -0.00000000000E+00 -0.00000000000E+00 -0.46764491596E+01  0.46764491596E+01  0.00000000000E+00 0. -1.
    9000006    2    1    2    0    0  0.83047536944E+01 -0.11056312475E+02  0.34239123546E+03  0.34788369745E+03  0.60000815462E+02 0.  0.
    9000007    2    1    2    0    0 -0.83047536944E+01  0.11056312475E+02  0.48910998890E+03  0.49297042522E+03  0.60000399364E+02 0.  0.
          5    1    3    3  501    0 -0.24634178558E+02 -0.10896566324E+02  0.12455768615E+03  0.12752366483E+03  0.47000000000E+01 0.  1.
         -5    1    3    3    0  501  0.32938932253E+02 -0.15974615120E+00  0.21783354930E+03  0.22036003263E+03  0.47000000000E+01 0.  1.
         12    1    4    4    0    0 -0.36043785874E+01  0.18468944617E+02  0.47982348737E+03  0.48019232865E+03  0.00000000000E+00 0. -1.
        -12    1    4    4    0    0 -0.47003751070E+01 -0.74126321420E+01  0.92865015282E+01  0.12778096574E+02  0.00000000000E+00 0. -1.
<mgrwt>
<rscale>  0 0.12506546E+03</rscale>
<asrwt>0</asrwt>
<pdfrwt beam="1">  1       21 0.12864260E+00 0.12506546E+03</pdfrwt>
<pdfrwt beam="2">  1       21 0.71945438E-03 0.12506546E+03</pdfrwt>
<totfact> 0.28007792E+06</totfact>
</mgrwt>
</event>
<event>
 9    1  0.4458519E-002  0.1250004E+03  0.7818608E-02  0.1235069E+00
         21   -1    0    0  503  502  0.00000000000E+00  0.00000000000E+00  0.58692750231E+02  0.58692750231E+02  0.00000000000E+00 0. -1.
         21   -1    0    0  502  503 -0.00000000000E+00 -0.00000000000E+00 -0.66554607898E+02  0.66554607898E+02  0.00000000000E+00 0. -1.
         25    2    1    2    0    0  0.35527136788E-14  0.00000000000E+00 -0.78618576671E+01  0.12524735813E+03  0.12500036765E+03 0.  0.
    9000006    2    3    3    0    0  0.51176761164E+01  0.92488637622E+01  0.10045377751E+02  0.61746206004E+02  0.59999602099E+02 0.  0.
    9000007    2    3    3    0    0 -0.51176761164E+01 -0.92488637622E+01 -0.17907235418E+02  0.63501152124E+02  0.59999959592E+02 0.  0.
          5    1    4    4  501    0 -0.15818623609E+02 -0.18843584975E+02  0.19121768866E+00  0.25048674851E+02  0.47000000000E+01 0. -1.
         -5    1    4    4    0  501  0.20936299725E+02  0.28092448737E+02  0.98541600627E+01  0.36697531154E+02  0.47000000000E+01 0. -1.
         12    1    5    5    0    0  0.17356384834E+02 -0.21865163576E+02 -0.24228473142E+02  0.36964149977E+02  0.00000000000E+00 0.  1.
        -12    1    5    5    0    0 -0.22474060951E+02  0.12616299814E+02  0.63212377233E+01  0.26537002147E+02  0.00000000000E+00 0.  1.
<mgrwt>
<rscale>  0 0.12500037E+03</rscale>
<asrwt>0</asrwt>
<pdfrwt beam="1">  1       21 0.90296539E-02 0.12500037E+03</pdfrwt>
<pdfrwt beam="2">  1       21 0.10239170E-01 0.12500037E+03</pdfrwt>
<totfact> 0.74009482E+06</totfact>
</mgrwt>
</event>
<event>
 9    1  0.4458519E-002  0.1250402E+03  0.7818608E-02  0.1235006E+00
         21   -1    0    0  503  502  0.00000000000E+00  0.00000000000E+00  0.29547789085E+03  0.29547789085E+03  0.00000000000E+00 0. -1.
         21   -1    0    0  502  503 -0.00000000000E+00 -0.00000000000E+00 -0.13228622411E+02  0.13228622411E+02  0.00000000000E+00 0. -1.
         25    2    1    2    0    0  0.00000000000E+00  0.17763568394E-14  0.28224926844E+03  0.30870651326E+03  0.12504024070E+03 0.  0.
    9000006    2    3    3    0    0 -0.17402139043E+02  0.15380579569E+01  0.14574132534E+03  0.15857442558E+03  0.60000953909E+02 0.  0.
    9000007    2    3    3    0    0  0.17402139043E+02 -0.15380579569E+01  0.13650794310E+03  0.15013208768E+03  0.60000209645E+02 0.  0.
          5    1    4    4  501    0 -0.36131263991E+02 -0.11167230696E+02  0.74565979484E+02  0.83739778931E+02  0.47000000000E+01 0. -1.
         -5    1    4    4    0  501  0.18729124948E+02  0.12705288653E+02  0.71175345859E+02  0.74834646650E+02  0.47000000000E+01 0. -1.
         12    1    5    5    0    0  0.85876451634E+01 -0.22530740282E+02  0.11897981120E+03  0.12139842413E+03  0.00000000000E+00 0. -1.
        -12    1    5    5    0    0  0.88144938795E+01  0.20992682325E+02  0.17528131898E+02  0.28733663557E+02  0.00000000000E+00 0. -1.
<mgrwt>
<rscale>  0 0.12504024E+03</rscale>
<asrwt>0</asrwt>
<pdfrwt beam="1">  1       21 0.45458132E-01 0.12504024E+03</pdfrwt>
<pdfrwt beam="2">  1       21 0.20351729E-02 0.12504024E+03</pdfrwt>
<totfact> 0.54685022E+06</totfact>
</mgrwt>
</event>
<event>
 9    1  0.4458519E-002  0.1249990E+03  0.7818608E-02  0.1235071E+00
         21   -1    0    0  503  502  0.00000000000E+00  0.00000000000E+00  0.51118015164E+01  0.51118015164E+01  0.00000000000E+00 0. -1.
         21   -1    0    0  502  503 -0.00000000000E+00 -0.00000000000E+00 -0.76415082940E+03  0.76415082940E+03  0.00000000000E+00 0. -1.
         25    2    1    2    0    0 -0.17763568394E-14  0.00000000000E+00 -0.75903902789E+03  0.76926263092E+03  0.12499899789E+03 0.  0.
    9000006    2    3    3    0    0 -0.31512174627E+01  0.16998518977E+02 -0.39621159238E+03  0.40110165073E+03  0.60000237159E+02 0.  0.
    9000007    2    3    3    0    0  0.31512174627E+01 -0.16998518977E+02 -0.36282743550E+03  0.36816098019E+03  0.59998996346E+02 0.  0.
          5    1    4    4  501    0 -0.16748252286E+02 -0.10997864941E+02 -0.60233922458E+02  0.63652748586E+02  0.47000000000E+01 0. -1.
         -5    1    4    4    0  501  0.13597034823E+02  0.27996383918E+02 -0.33597766993E+03  0.33744890214E+03  0.47000000000E+01 0. -1.
         12    1    5    5    0    0 -0.27116621091E+02  0.98602978065E+00 -0.16820422150E+03  0.17037882358E+03  0.00000000000E+00 0. -1.
        -12    1    5    5    0    0  0.30267838554E+02 -0.17984548758E+02 -0.19462321401E+03  0.19778215661E+03  0.00000000000E+00 0. -1.
<mgrwt>
<rscale>  0 0.12499900E+03</rscale>
<asrwt>0</asrwt>
<pdfrwt beam="1">  1       21 0.78643084E-03 0.12499900E+03</pdfrwt>
<pdfrwt beam="2">  1       21 0.11756169E+00 0.12499900E+03</pdfrwt>
<totfact> 0.30403399E+06</totfact>
</mgrwt>
</event>
<event>
 9    1  0.4458519E-002  0.1250043E+03  0.7818608E-02  0.1235062E+00
         21   -1    0    0  503  502  0.00000000000E+00  0.00000000000E+00  0.10323452397E+04  0.10323452397E+04  0.00000000000E+00 0. -1.
         21   -1    0    0  502  503 -0.00000000000E+00 -0.00000000000E+00 -0.37841232915E+01  0.37841232915E+01  0.00000000000E+00 0. -1.
         25    2    1    2    0    0  0.00000000000E+00  0.17763568394E-14  0.10285611164E+04  0.10361293630E+04  0.12500434659E+03 0.  0.
    9000006    2    3    3    0    0  0.15405750070E+02  0.75825193027E+01  0.48593995605E+03  0.48993107824E+03  0.59999906754E+02 0.  0.
    9000007    2    3    3    0    0 -0.15405750070E+02 -0.75825193027E+01  0.54262116040E+03  0.54619828479E+03  0.60000090476E+02 0.  0.
          5    1    4    4  501    0 -0.62019003124E+01  0.29623931069E+02  0.27335701145E+03  0.27506760364E+03  0.47000000000E+01 0.  1.
         -5    1    4    4    0  501  0.21607650382E+02 -0.22041411766E+02  0.21258294459E+03  0.21486347461E+03  0.47000000000E+01 0.  1.
         12    1    5    5    0    0 -0.12748892922E+02  0.15687944692E+02  0.45654909506E+03  0.45699641364E+03  0.00000000000E+00 0.  1.
        -12    1    5    5    0    0 -0.26568571481E+01 -0.23270463995E+02  0.86072065343E+02  0.89201871151E+02  0.00000000000E+00 0.  1.
<mgrwt>
<rscale>  0 0.12500435E+03</rscale>
<asrwt>0</asrwt>
<pdfrwt beam="1">  1       21 0.15882212E+00 0.12500435E+03</pdfrwt>
<pdfrwt beam="2">  1       21 0.58217364E-03 0.12500435E+03</pdfrwt>
<totfact> 0.22728107E+06</totfact>
</mgrwt>
</event>
<event>
 9    1  0.4458519E-002  0.1249981E+03  0.7818608E-02  0.1235072E+00
         21   -1    0    0  503  502  0.00000000000E+00  0.00000000000E+00  0.21642713489E+03  0.21642713489E+03  0.00000000000E+00 0.  1.
         21   -1    0    0  502  503 -0.00000000000E+00 -0.00000000000E+00 -0.18048257975E+02  0.18048257975E+02  0.00000000000E+00 0.  1.
         25    2    1    2    0    0 -0.17763568394E-14  0.17763568394E-14  0.19837887692E+03  0.23447539287E+03  0.12499812420E+03 0.  0.
    9000006    2    3    3    0    0 -0.57588577121E+01  0.12934981490E+02  0.11847187333E+03  0.13355171315E+03  0.59999976050E+02 0.  0.
    9000007    2    3    3    0    0  0.57588577121E+01 -0.12934981490E+02  0.79907003583E+02  0.10092367972E+03  0.59999847646E+02 0.  0.
          5    1    4    4  501    0 -0.42042436629E+01  0.54293959556E+01 -0.50297140015E+01  0.97232725024E+01  0.47000000000E+01 0. -1.
         -5    1    4    4    0  501 -0.15546140492E+01  0.75055855340E+01  0.12350158733E+03  0.12382844065E+03  0.47000000000E+01 0. -1.
         12    1    5    5    0    0  0.27577973684E+02  0.31206162957E+01  0.63380201978E+02  0.69190554857E+02  0.00000000000E+00 0. -1.
        -12    1    5    5    0    0 -0.21819115972E+02 -0.16055597785E+02  0.16526801605E+02  0.31733124859E+02  0.00000000000E+00 0. -1.
<mgrwt>
<rscale>  0 0.12499812E+03</rscale>
<asrwt>0</asrwt>
<pdfrwt beam="1">  1       21 0.33296480E-01 0.12499812E+03</pdfrwt>
<pdfrwt beam="2">  1       21 0.27766552E-02 0.12499812E+03</pdfrwt>
<totfact> 0.61374306E+06</totfact>
</mgrwt>
</event>
<event>
 9    1  0.4458519E-002  0.1250044E+03  0.7818608E-02  0.1235062E+00
         21   -1    0    0  503  502  0.00000000000E+00  0.00000000000E+00  0.19366355512E+03  0.19366355512E+03  0.00000000000E+00 0. -1.
         21   -1    0    0  502  503 -0.00000000000E+00 -0.00000000000E+00 -0.20171720206E+02  0.20171720206E+02  0.00000000000E+00 0. -1.
         25    2    1    2    0    0  0.17763568394E-14 -0.35527136788E-14  0.17349183492E+03  0.21383527533E+03  0.12500443269E+03 0.  0.
    9000006    2    3    3    0    0  0.48918742699E+01 -0.48864479409E+01  0.59227733106E+02  0.84592787773E+02  0.60001729699E+02 0.  0.
    9000007    2    3    3    0    0 -0.48918742699E+01  0.48864479409E+01  0.11426410181E+03  0.12924248756E+03  0.59996065035E+02 0.  0.
          5    1    4    4  501    0 -0.13731939045E+01 -0.18674195528E+02  0.64931893854E+02  0.67741066419E+02  0.47000000000E+01 0. -1.
         -5    1    4    4    0  501  0.62650681744E+01  0.13787747587E+02 -0.57041607477E+01  0.16851721354E+02  0.47000000000E+01 0. -1.
         12    1    5    5    0    0 -0.16402743917E+02 -0.20503459279E+02  0.84395032050E+02  0.88385311478E+02  0.00000000000E+00 0. -1.
        -12    1    5    5    0    0  0.11510869647E+02  0.25389907220E+02  0.29869069763E+02  0.40857176079E+02  0.00000000000E+00 0. -1.
<mgrwt>
<rscale>  0 0.12500443E+03</rscale>
<asrwt>0</asrwt>
<pdfrwt beam="1">  1       21 0.29794392E-01 0.12500443E+03</pdfrwt>
<pdfrwt beam="2">  1       21 0.31033417E-02 0.12500443E+03</pdfrwt>
<totfact> 0.63451155E+06</totfact>
</mgrwt>
</event>
<event>
 9    1  0.4458519E-002  0.1250038E+03  0.7818608E-02  0.1235063E+00
         21   -1    0    0  503  502  0.00000000000E+00  0.00000000000E+00  0.86291008095E+01  0.86291008095E+01  0.00000000000E+00 0.  1.
         21   -1    0    0  502  503 -0.00000000000E+00 -0.00000000000E+00 -0.45271093105E+03  0.45271093105E+03  0.00000000000E+00 0.  1.
         25    2    1    2    0    0  0.17763568394E-14  0.00000000000E+00 -0.44408183024E+03  0.46134003186E+03  0.12500381213E+03 0.  0.
    9000006    2    3    3    0    0 -0.23657705628E+01  0.98094177322E+01 -0.16923817461E+03  0.17984256610E+03  0.59999727413E+02 0.  0.
    9000007    2    3    3    0    0  0.23657705628E+01 -0.98094177322E+01 -0.27484365563E+03  0.28149746576E+03  0.59999722015E+02 0.  0.
          5    1    4    4  501    0  0.12913575864E+02  0.15096479614E+02 -0.16692080225E+02  0.26370052722E+02  0.47000000000E+01 0.  1.
         -5    1    4    4    0  501 -0.15279346427E+02 -0.52870618815E+01 -0.15254609438E+03  0.15347251338E+03  0.47000000000E+01 0.  1.
         12    1    5    5    0    0  0.21189399528E+02  0.11036656307E+02 -0.20230636045E+03  0.20371220364E+03  0.00000000000E+00 0.  1.
        -12    1    5    5    0    0 -0.18823628966E+02 -0.20846074039E+02 -0.72537295182E+02  0.77785262117E+02  0.00000000000E+00 0.  1.
<mgrwt>
<rscale>  0 0.12500381E+03</rscale>
<asrwt>0</asrwt>
<pdfrwt beam="1">  1       21 0.13275535E-02 0.12500381E+03</pdfrwt>
<pdfrwt beam="2">  1       21 0.69647858E-01 0.12500381E+03</pdfrwt>
<totfact> 0.44217180E+06</totfact>
</mgrwt>
</event>
<event>
 9    1  0.4458519E-002  0.1249989E+03  0.7818608E-02  0.1235071E+00
         21   -1    0    0  503  502  0.00000000000E+00  0.00000000000E+00  0.12381824350E+02  0.12381824350E+02  0.00000000000E+00 0. -1.
         21   -1    0    0  502  503 -0.00000000000E+00 -0.00000000000E+00 -0.31547713559E+03  0.31547713559E+03  0.00000000000E+00 0. -1.
         25    2    1    2    0    0  0.00000000000E+00  0.35527136788E-14 -0.30309531124E+03  0.32785895994E+03  0.12499891966E+03 0.  0.
    9000006    2    3    3    0    0  0.11562211584E+02  0.10730597082E+02 -0.13162635874E+03  0.14551388751E+03  0.59999689117E+02 0.  0.
    9000007    2    3    3    0    0 -0.11562211584E+02 -0.10730597082E+02 -0.17146895250E+03  0.18234507243E+03  0.59994110673E+02 0.  0.
          5    1    4    4  501    0  0.59728421566E+01 -0.17402987075E+02 -0.12130678209E+02  0.22534022197E+02  0.47000000000E+01 0.  1.
         -5    1    4    4    0  501  0.55893694274E+01  0.28133584158E+02 -0.11949568053E+03  0.12297986532E+03  0.47000000000E+01 0.  1.
         12    1    5    5    0    0 -0.26213579753E+02 -0.26679590875E+02 -0.79476968913E+02  0.87838151850E+02  0.00000000000E+00 0.  1.
        -12    1    5    5    0    0  0.14651368169E+02  0.15948993793E+02 -0.91991983591E+02  0.94506920578E+02  0.00000000000E+00 0.  1.
<mgrwt>
<rscale>  0 0.12499892E+03</rscale>
<asrwt>0</asrwt>
<pdfrwt beam="1">  1       21 0.19048961E-02 0.12499892E+03</pdfrwt>
<pdfrwt beam="2">  1       21 0.48534944E-01 0.12499892E+03</pdfrwt>
<totfact> 0.53217820E+06</totfact>
</mgrwt>
</event>
<event>
 9    1  0.4458519E-002  0.1249975E+03  0.7818608E-02  0.1235073E+00
         21   -1    0    0  503  502  0.00000000000E+00  0.00000000000E+00  0.91770330864E+01  0.91770330864E+01  0.00000000000E+00 0. -1.
         21   -1    0    0  502  503 -0.00000000000E+00 -0.00000000000E+00 -0.42563827730E+03  0.42563827730E+03  0.00000000000E+00 0. -1.
         25    2    1    2    0    0  0.35527136788E-14  0.17763568394E-14 -0.41646124421E+03  0.43481531038E+03  0.12499754483E+03 0.  0.
    9000006    2    3    3    0    0  0.58588218300E+01 -0.13883234571E+02 -0.23920065929E+03  0.24707130372E+03  0.60001697684E+02 0.  0.
    9000007    2    3    3    0    0 -0.58588218300E+01  0.13883234571E+02 -0.17726058492E+03  0.18774400666E+03  0.59995225425E+02 0.  0.
          5    1    4    4  501    0  0.27172258242E+02  0.74542972841E+01 -0.15256234037E+03  0.15521358144E+03  0.47000000000E+01 0.  1.
         -5    1    4    4    0  501 -0.21313436412E+02 -0.21337531855E+02 -0.86638318919E+02  0.91857722280E+02  0.47000000000E+01 0.  1.
         12    1    5    5    0    0  0.45610831357E+01  0.22699576531E+02 -0.22176508427E+02  0.32060439487E+02  0.00000000000E+00 0. -1.
        -12    1    5    5    0    0 -0.10419904966E+02 -0.88163419600E+01 -0.15508407649E+03  0.15568356717E+03  0.00000000000E+00 0. -1.
<mgrwt>
<rscale>  0 0.12499754E+03</rscale>
<asrwt>0</asrwt>
<pdfrwt beam="1">  1       21 0.14118515E-02 0.12499754E+03</pdfrwt>
<pdfrwt beam="2">  1       21 0.65482799E-01 0.12499754E+03</pdfrwt>
<totfact> 0.45817495E+06</totfact>
</mgrwt>
</event>
<event>
 9    1  0.4458519E-002  0.1249987E+03  0.7818608E-02  0.1235071E+00
         21   -1    0    0  503  502  0.00000000000E+00  0.00000000000E+00  0.94553061084E+01  0.94553061084E+01  0.00000000000E+00 0.  1.
         21   -1    0    0  502  503 -0.00000000000E+00 -0.00000000000E+00 -0.41311895880E+03  0.41311895880E+03  0.00000000000E+00 0.  1.
         25    2    1    2    0    0  0.00000000000E+00  0.35527136788E-14 -0.40366365269E+03  0.42257426491E+03  0.12499865943E+03 0.  0.
    9000006    2    3    3    0    0 -0.47723317959E+00 -0.16271933659E+02 -0.18007366691E+03  0.19050199139E+03  0.59995663473E+02 0.  0.
    9000007    2    3    3    0    0  0.47723317959E+00  0.16271933659E+02 -0.22358998579E+03  0.23207227352E+03  0.60000456783E+02 0.  0.
          5    1    4    4  501    0  0.17140428213E+02  0.16140454117E+02 -0.87602122193E+02  0.90832430063E+02  0.47000000000E+01 0. -1.
         -5    1    4    4    0  501 -0.17617661392E+02 -0.32412387776E+02 -0.92471544713E+02  0.99669561330E+02  0.47000000000E+01 0. -1.
         12    1    5    5    0    0  0.22162730344E+02  0.28895469991E+02 -0.11534384597E+03  0.12095593249E+03  0.00000000000E+00 0.  1.
        -12    1    5    5    0    0 -0.21685497165E+02 -0.12623536333E+02 -0.10824613982E+03  0.11111634102E+03  0.00000000000E+00 0.  1.
<mgrwt>
<rscale>  0 0.12499866E+03</rscale>
<asrwt>0</asrwt>
<pdfrwt beam="1">  1       21 0.14546629E-02 0.12499866E+03</pdfrwt>
<pdfrwt beam="2">  1       21 0.63556743E-01 0.12499866E+03</pdfrwt>
<totfact> 0.46580770E+06</totfact>
</mgrwt>
</event>
<event>
 9    1  0.4458519E-002  0.1250014E+03  0.7818608E-02  0.1235067E+00
         21   -1    0    0  503  502  0.00000000000E+00  0.00000000000E+00  0.26527654207E+01  0.26527654207E+01  0.00000000000E+00 0.  1.
         21   -1    0    0  502  503 -0.00000000000E+00 -0.00000000000E+00 -0.14725519108E+04  0.14725519108E+04  0.00000000000E+00 0.  1.
         25    2    1    2    0    0  0.00000000000E+00  0.00000000000E+00 -0.14698991453E+04  0.14752046762E+04  0.12500135662E+03 0.  0.
    9000006    2    3    3    0    0  0.92096373097E+01  0.58879868222E+01 -0.57362190776E+03  0.57685490919E+03  0.60000061519E+02 0.  0.
    9000007    2    3    3    0    0 -0.92096373097E+01 -0.58879868222E+01 -0.89627723759E+03  0.89834976700E+03  0.59999428727E+02 0.  0.
          5    1    4    4  501    0  0.12565741402E+02 -0.25156100702E+02 -0.22326962912E+03  0.22508252831E+03  0.47000000000E+01 0.  1.
         -5    1    4    4    0  501 -0.33561040921E+01  0.31044087524E+02 -0.35035227864E+03  0.35177238088E+03  0.47000000000E+01 0.  1.
         12    1    5    5    0    0 -0.27080949869E+02 -0.22936330727E+02 -0.59773269191E+03  0.59878529047E+03  0.00000000000E+00 0.  1.
        -12    1    5    5    0    0  0.17871312559E+02  0.17048343904E+02 -0.29854454568E+03  0.29956447653E+03  0.00000000000E+00 0.  1.
<mgrwt>
<rscale>  0 0.12500136E+03</rscale>
<asrwt>0</asrwt>
<pdfrwt beam="1">  1       21 0.40811701E-03 0.12500136E+03</pdfrwt>
<pdfrwt beam="2">  1       21 0.22654686E+00 0.12500136E+03</pdfrwt>
<totfact> 0.14364140E+06</totfact>
</mgrwt>
</event>
<event>
 9    1  0.4458519E-002  0.1249893E+03  0.7818608E-02  0.1235086E+00
         21   -1    0    0  503  502  0.00000000000E+00  0.00000000000E+00  0.34977625214E+03  0.34977625214E+03  0.00000000000E+00 0.  1.
         21   -1    0    0  502  503 -0.00000000000E+00 -0.00000000000E+00 -0.11165940595E+02  0.11165940595E+02  0.00000000000E+00 0.  1.
         25    2    1    2    0    0  0.00000000000E+00  0.00000000000E+00  0.33861031155E+03  0.36094219274E+03  0.12498929319E+03 0.  0.
    9000006    2    3    3    0    0  0.16529587847E+02  0.56413318463E+01  0.17135610663E+03  0.18239520566E+03  0.60000365581E+02 0.  0.
    9000007    2    3    3    0    0 -0.16529587847E+02 -0.56413318463E+01  0.16725420491E+03  0.17854698707E+03  0.60000046931E+02 0.  0.
          5    1    4    4  501    0 -0.62938264697E+01 -0.33708084838E+01 -0.66087054929E+00  0.85732929116E+01  0.47000000000E+01 0. -1.
         -5    1    4    4    0  501  0.22823414316E+02  0.90121403301E+01  0.17201697718E+03  0.17382191275E+03  0.47000000000E+01 0. -1.
         12    1    5    5    0    0 -0.14593600661E+02 -0.34594551410E+01  0.17217478366E+03  0.17282678362E+03  0.00000000000E+00 0. -1.
        -12    1    5    5    0    0 -0.19359871860E+01 -0.21818767053E+01 -0.49205787427E+01  0.57202034496E+01  0.00000000000E+00 0. -1.
<mgrwt>
<rscale>  0 0.12498929E+03</rscale>
<asrwt>0</asrwt>
<pdfrwt beam="1">  1       21 0.53811723E-01 0.12498929E+03</pdfrwt>
<pdfrwt beam="2">  1       21 0.17178373E-02 0.12498929E+03</pdfrwt>
<totfact> 0.50753943E+06</totfact>
</mgrwt>
</event>
<event>
 9    1  0.4458519E-002  0.1250007E+03  0.7818608E-02  0.1235068E+00
         21   -1    0    0  503  502  0.00000000000E+00  0.00000000000E+00  0.24234824739E+03  0.24234824739E+03  0.00000000000E+00 0. -1.
         21   -1    0    0  502  503 -0.00000000000E+00 -0.00000000000E+00 -0.16118525866E+02  0.16118525866E+02  0.00000000000E+00 0. -1.
         25    2    1    2    0    0  0.00000000000E+00  0.00000000000E+00  0.22622972152E+03  0.25846677326E+03  0.12500074390E+03 0.  0.
    9000006    2    3    3    0    0  0.29198623489E+01  0.15536718581E+02  0.97587479448E+02  0.11564275969E+03  0.60000137526E+02 0.  0.
    9000007    2    3    3    0    0 -0.29198623489E+01 -0.15536718581E+02  0.12864224208E+03  0.14282401357E+03  0.59999643204E+02 0.  0.
          5    1    4    4  501    0 -0.13587634588E+02  0.31091922866E+02  0.35304018107E+02  0.49191413638E+02  0.47000000000E+01 0.  1.
         -5    1    4    4    0  501  0.16507496937E+02 -0.15555204284E+02  0.62283461341E+02  0.66451346051E+02  0.47000000000E+01 0.  1.
         12    1    5    5    0    0  0.11890222285E+02  0.54591931798E+01  0.11073609209E+03  0.11150633286E+03  0.00000000000E+00 0. -1.
        -12    1    5    5    0    0 -0.14810084634E+02 -0.20995911761E+02  0.17906149982E+02  0.31317680705E+02  0.00000000000E+00 0. -1.
<mgrwt>
<rscale>  0 0.12500074E+03</rscale>
<asrwt>0</asrwt>
<pdfrwt beam="1">  1       21 0.37284343E-01 0.12500074E+03</pdfrwt>
<pdfrwt beam="2">  1       21 0.24797734E-02 0.12500074E+03</pdfrwt>
<totfact> 0.59088981E+06</totfact>
</mgrwt>
</event>
<event>
 9    1  0.4458519E-002  0.1249987E+03  0.7818608E-02  0.1235071E+00
         21   -1    0    0  503  502  0.00000000000E+00  0.00000000000E+00  0.23346975048E+03  0.23346975048E+03  0.00000000000E+00 0. -1.
         21   -1    0    0  502  503 -0.00000000000E+00 -0.00000000000E+00 -0.16730933851E+02  0.16730933851E+02  0.00000000000E+00 0. -1.
         25    2    1    2    0    0  0.35527136788E-14 -0.17763568394E-14  0.21673881663E+03  0.25020068433E+03  0.12499867122E+03 0.  0.
    9000006    2    3    3    0    0  0.13416321464E+02  0.69260655677E+01  0.12606180913E+03  0.14042612073E+03  0.59999563293E+02 0.  0.
    9000007    2    3    3    0    0 -0.13416321464E+02 -0.69260655677E+01  0.90677007498E+02  0.10977456360E+03  0.60001392146E+02 0.  0.
          5    1    4    4  501    0  0.12559795897E+02 -0.72826453017E+01  0.19177381904E+01  0.15380283330E+02  0.47000000000E+01 0. -1.
         -5    1    4    4    0  501  0.85652556725E+00  0.14208710869E+02  0.12414407094E+03  0.12504583740E+03  0.47000000000E+01 0. -1.
         12    1    5    5    0    0 -0.32702410062E+02  0.90161378170E+01  0.68061372724E+02  0.76046622687E+02  0.00000000000E+00 0. -1.
        -12    1    5    5    0    0  0.19286088598E+02 -0.15942203385E+02  0.22615634774E+02  0.33727940916E+02  0.00000000000E+00 0. -1.
<mgrwt>
<rscale>  0 0.12499867E+03</rscale>
<asrwt>0</asrwt>
<pdfrwt beam="1">  1       21 0.35918421E-01 0.12499867E+03</pdfrwt>
<pdfrwt beam="2">  1       21 0.25739900E-02 0.12499867E+03</pdfrwt>
<totfact> 0.59861306E+06</totfact>
</mgrwt>
</event>
<event>
 9    1  0.4458519E-002  0.1249999E+03  0.7818608E-02  0.1235069E+00
         21   -1    0    0  503  502  0.00000000000E+00  0.00000000000E+00  0.22614962137E+03  0.22614962137E+03  0.00000000000E+00 0.  1.
         21   -1    0    0  502  503 -0.00000000000E+00 -0.00000000000E+00 -0.17272827405E+02  0.17272827405E+02  0.00000000000E+00 0.  1.
         25    2    1    2    0    0 -0.35527136788E-14 -0.35527136788E-14  0.20887679397E+03  0.24342244878E+03  0.12499989404E+03 0.  0.
    9000006    2    3    3    0    0  0.11427534371E+02 -0.13197854256E+02  0.10210170447E+03  0.11970617479E+03  0.60000319406E+02 0.  0.
    9000007    2    3    3    0    0 -0.11427534371E+02  0.13197854256E+02  0.10677508950E+03  0.12371627399E+03  0.60000206775E+02 0.  0.
          5    1    4    4  501    0 -0.22112678652E+02 -0.80841169175E+01  0.64598072677E+02  0.68915342973E+02  0.47000000000E+01 0.  1.
         -5    1    4    4    0  501  0.33540213023E+02 -0.51137373387E+01  0.37503631792E+02  0.50790831818E+02  0.47000000000E+01 0.  1.
         12    1    5    5    0    0  0.32568792140E+00  0.35451697255E+02  0.47104890014E+02  0.58955912122E+02  0.00000000000E+00 0.  1.
        -12    1    5    5    0    0 -0.11753222292E+02 -0.22253842998E+02  0.59670199485E+02  0.64760361866E+02  0.00000000000E+00 0.  1.
<mgrwt>
<rscale>  0 0.12499989E+03</rscale>
<asrwt>0</asrwt>
<pdfrwt beam="1">  1       21 0.34792247E-01 0.12499989E+03</pdfrwt>
<pdfrwt beam="2">  1       21 0.26573582E-02 0.12499989E+03</pdfrwt>
<totfact> 0.60503206E+06</totfact>
</mgrwt>
</event>
<event>
 9    1  0.4458519E-002  0.1250006E+03  0.7818608E-02  0.1235068E+00
         21   -1    0    0  503  502  0.00000000000E+00  0.00000000000E+00  0.95993166237E+01  0.95993166237E+01  0.00000000000E+00 0. -1.
         21   -1    0    0  502  503 -0.00000000000E+00 -0.00000000000E+00 -0.40693393711E+03  0.40693393711E+03  0.00000000000E+00 0. -1.
         25    2    1    2    0    0 -0.35527136788E-14  0.00000000000E+00 -0.39733462049E+03  0.41653325374E+03  0.12500060332E+03 0.  0.
    9000006    2    3    3    0    0  0.36998933113E+01 -0.16122873191E+02 -0.17960821259E+03  0.19008612928E+03  0.59999918885E+02 0.  0.
    9000007    2    3    3    0    0 -0.36998933113E+01  0.16122873191E+02 -0.21772640790E+03  0.22644712446E+03  0.59998960203E+02 0.  0.
          5    1    4    4  501    0  0.21849994931E+02 -0.20513799241E+02 -0.46035287255E+02  0.55132349038E+02  0.47000000000E+01 0. -1.
         -5    1    4    4    0  501 -0.18150101620E+02  0.43909260503E+01 -0.13357292533E+03  0.13495378024E+03  0.47000000000E+01 0. -1.
         12    1    5    5    0    0 -0.24922482101E+02  0.24486955601E+01 -0.41868423434E+02  0.48786177395E+02  0.00000000000E+00 0.  1.
        -12    1    5    5    0    0  0.21222588789E+02  0.13674177631E+02 -0.17585798447E+03  0.17766094706E+03  0.00000000000E+00 0.  1.
<mgrwt>
<rscale>  0 0.12500060E+03</rscale>
<asrwt>0</asrwt>
<pdfrwt beam="1">  1       21 0.14768176E-02 0.12500060E+03</pdfrwt>
<pdfrwt beam="2">  1       21 0.62605238E-01 0.12500060E+03</pdfrwt>
<totfact> 0.46962996E+06</totfact>
</mgrwt>
</event>
<event>
 9    1  0.4458519E-002  0.1250010E+03  0.7818608E-02  0.1235068E+00
         21   -1    0    0  503  502  0.00000000000E+00  0.00000000000E+00  0.33056028979E+02  0.33056028979E+02  0.00000000000E+00 0.  1.
         21   -1    0    0  502  503 -0.00000000000E+00 -0.00000000000E+00 -0.11817247019E+03  0.11817247019E+03  0.00000000000E+00 0.  1.
         25    2    1    2    0    0  0.00000000000E+00 -0.17763568394E-14 -0.85116441209E+02  0.15122849917E+03  0.12500100158E+03 0.  0.
    9000006    2    3    3    0    0 -0.16482573338E+02  0.52227063903E+01 -0.39289500822E+02  0.73774167780E+02  0.60000092257E+02 0.  0.
    9000007    2    3    3    0    0  0.16482573338E+02 -0.52227063903E+01 -0.45826940387E+02  0.77454331387E+02  0.60000942489E+02 0.  0.
          5    1    4    4  501    0  0.50420994211E+01  0.17611192189E+02 -0.44154506016E+02  0.48034230070E+02  0.47000000000E+01 0.  1.
         -5    1    4    4    0  501 -0.21524672759E+02 -0.12388485799E+02  0.48650051942E+01  0.25739937710E+02  0.47000000000E+01 0.  1.
         12    1    5    5    0    0 -0.18978975104E+02 -0.34971863331E+01 -0.35621364579E+02  0.40513126549E+02  0.00000000000E+00 0.  1.
        -12    1    5    5    0    0  0.35461548442E+02 -0.17255200572E+01 -0.10205575808E+02  0.36941204839E+02  0.00000000000E+00 0.  1.
<mgrwt>
<rscale>  0 0.12500100E+03</rscale>
<asrwt>0</asrwt>
<pdfrwt beam="1">  1       21 0.50855429E-02 0.12500100E+03</pdfrwt>
<pdfrwt beam="2">  1       21 0.18180380E-01 0.12500100E+03</pdfrwt>
<totfact> 0.70603419E+06</totfact>
</mgrwt>
</event>
<event>
 9    1  0.4458519E-002  0.1249931E+03  0.7818608E-02  0.1235080E+00
         21   -1    0    0  503  502  0.00000000000E+00  0.00000000000E+00  0.64554282785E+02  0.64554282785E+02  0.00000000000E+00 0. -1.
         21   -1    0    0  502  503 -0.00000000000E+00 -0.00000000000E+00 -0.60504433054E+02  0.60504433054E+02  0.00000000000E+00 0. -1.
         25    2    1    2    0    0  0.17763568394E-14  0.17763568394E-14  0.40498497303E+01  0.12505871584E+03  0.12499312431E+03 0.  0.
    9000006    2    3    3    0    0  0.82731961371E+01 -0.69201612545E+01  0.15797416202E+02  0.62975125026E+02  0.59999780060E+02 0.  0.
    9000007    2    3    3    0    0 -0.82731961371E+01  0.69201612545E+01 -0.11747566472E+02  0.62083590813E+02  0.60000271033E+02 0.  0.
          5    1    4    4  501    0  0.11666795706E+02 -0.30568122107E+02 -0.15311342154E+01  0.33090158403E+02  0.47000000000E+01 0.  1.
         -5    1    4    4    0  501 -0.33935995684E+01  0.23647960852E+02  0.17328550418E+02  0.29884966623E+02  0.47000000000E+01 0.  1.
         12    1    5    5    0    0 -0.67441423302E+01 -0.91993438147E+01 -0.33258208525E+02  0.35159917757E+02  0.00000000000E+00 0. -1.
        -12    1    5    5    0    0 -0.15290538069E+01  0.16119505069E+02  0.21510642054E+02  0.26923673055E+02  0.00000000000E+00 0. -1.
<mgrwt>
<rscale>  0 0.12499312E+03</rscale>
<asrwt>0</asrwt>
<pdfrwt beam="1">  1       21 0.99314282E-02 0.12499312E+03</pdfrwt>
<pdfrwt beam="2">  1       21 0.93083742E-02 0.12499312E+03</pdfrwt>
<totfact> 0.74048667E+06</totfact>
</mgrwt>
</event>
<event>
 9    1  0.4458519E-002  0.1249898E+03  0.7818608E-02  0.1235085E+00
         21   -1    0    0  503  502  0.00000000000E+00  0.00000000000E+00  0.62323951422E+01  0.62323951422E+01  0.00000000000E+00 0. -1.
         21   -1    0    0  502  503 -0.00000000000E+00 -0.00000000000E+00 -0.62666287432E+03  0.62666287432E+03  0.00000000000E+00 0. -1.
         25    2    1    2    0    0  0.00000000000E+00  0.88817841970E-15 -0.62043047918E+03  0.63289526946E+03  0.12498977004E+03 0.  0.
    9000006    2    3    3    0    0  0.95339964899E+01 -0.65824789321E+01 -0.24394143724E+03  0.25147940317E+03  0.60001994117E+02 0.  0.
    9000007    2    3    3    0    0 -0.95339964899E+01  0.65824789321E+01 -0.37648904194E+03  0.38141586629E+03  0.59998652003E+02 0.  0.
          5    1    4    4  501    0  0.30731156624E+02 -0.59329117432E+01 -0.78845197205E+02  0.84960335166E+02  0.47000000000E+01 0.  1.
         -5    1    4    4    0  501 -0.21197160134E+02 -0.64956718897E+00 -0.16509624003E+03  0.16651906800E+03  0.47000000000E+01 0.  1.
         12    1    5    5    0    0  0.93639892765E+01  0.29598640728E+02 -0.21041564029E+03  0.21269345431E+03  0.00000000000E+00 0.  1.
        -12    1    5    5    0    0 -0.18897985766E+02 -0.23016161796E+02 -0.16607340165E+03  0.16872241198E+03  0.00000000000E+00 0.  1.
<mgrwt>
<rscale>  0 0.12498977E+03</rscale>
<asrwt>0</asrwt>
<pdfrwt beam="1">  1       21 0.95882992E-03 0.12498977E+03</pdfrwt>
<pdfrwt beam="2">  1       21 0.96409684E-01 0.12498977E+03</pdfrwt>
<totfact> 0.35655058E+06</totfact>
</mgrwt>
</event>
<event>
 9    1  0.4458519E-002  0.1250008E+03  0.7818608E-02  0.1235068E+00
         21   -1    0    0  503  502  0.00000000000E+00  0.00000000000E+00  0.35282290386E+02  0.35282290386E+02  0.00000000000E+00 0. -1.
         21   -1    0    0  502  503 -0.00000000000E+00 -0.00000000000E+00 -0.11071556327E+03  0.11071556327E+03  0.00000000000E+00 0. -1.
         25    2    1    2    0    0 -0.17763568394E-14 -0.17763568394E-14 -0.75433272882E+02  0.14599785365E+03  0.12500077845E+03 0.  0.
    9000006    2    3    3    0    0  0.69984038938E+01  0.14999885059E+02 -0.44354523803E+02  0.76428529955E+02  0.60000185004E+02 0.  0.
    9000007    2    3    3    0    0 -0.69984038938E+01 -0.14999885059E+02 -0.31078749080E+02  0.69569323698E+02  0.60000232888E+02 0.  0.
          5    1    4    4  501    0  0.17885655077E+02  0.33037217972E+02 -0.16788018091E+02  0.41415962868E+02  0.47000000000E+01 0. -1.
         -5    1    4    4    0  501 -0.10887251183E+02 -0.18037332913E+02 -0.27566505711E+02  0.35012567088E+02  0.47000000000E+01 0. -1.
         12    1    5    5    0    0 -0.13820688578E+02  0.33322811178E+01  0.14293766928E+02  0.20160042243E+02  0.00000000000E+00 0.  1.
        -12    1    5    5    0    0  0.68222846846E+01 -0.18332166177E+02 -0.45372516008E+02  0.49409281455E+02  0.00000000000E+00 0.  1.
<mgrwt>
<rscale>  0 0.12500078E+03</rscale>
<asrwt>0</asrwt>
<pdfrwt beam="1">  1       21 0.54280447E-02 0.12500078E+03</pdfrwt>
<pdfrwt beam="2">  1       21 0.17033164E-01 0.12500078E+03</pdfrwt>
<totfact> 0.71264229E+06</totfact>
</mgrwt>
</event>
<event>
 9    1  0.4458519E-002  0.1249976E+03  0.7818608E-02  0.1235073E+00
         21   -1    0    0  503  502  0.00000000000E+00  0.00000000000E+00  0.21777686903E+03  0.21777686903E+03  0.00000000000E+00 0.  1.
         21   -1    0    0  502  503 -0.00000000000E+00 -0.00000000000E+00 -0.17936243554E+02  0.17936243554E+02  0.00000000000E+00 0.  1.
         25    2    1    2    0    0  0.00000000000E+00  0.17763568394E-14  0.19984062548E+03  0.23571311258E+03  0.12499758339E+03 0.  0.
    9000006    2    3    3    0    0 -0.69957903903E+01  0.29418675141E+01  0.70195270496E+02  0.92654913286E+02  0.59999677402E+02 0.  0.
    9000007    2    3    3    0    0  0.69957903903E+01 -0.29418675141E+01  0.12964535498E+03  0.14305819930E+03  0.60001122079E+02 0.  0.
          5    1    4    4  501    0  0.19870731399E+02  0.58817539913E+01  0.48653623896E+01  0.21799145569E+02  0.47000000000E+01 0.  1.
         -5    1    4    4    0  501 -0.26866521790E+02 -0.29398864772E+01  0.65329908106E+02  0.70855767717E+02  0.47000000000E+01 0.  1.
         12    1    5    5    0    0 -0.81909210448E+01  0.25577114311E+02  0.44346112082E+02  0.51844552470E+02  0.00000000000E+00 0.  1.
        -12    1    5    5    0    0  0.15186711435E+02 -0.28518981826E+02  0.85299242899E+02  0.91213646828E+02  0.00000000000E+00 0.  1.
<mgrwt>
<rscale>  0 0.12499758E+03</rscale>
<asrwt>0</asrwt>
<pdfrwt beam="1">  1       21 0.33504132E-01 0.12499758E+03</pdfrwt>
<pdfrwt beam="2">  1       21 0.27594222E-02 0.12499758E+03</pdfrwt>
<totfact> 0.61253715E+06</totfact>
</mgrwt>
</event>
<event>
 9    1  0.4458519E-002  0.1250018E+03  0.7818608E-02  0.1235066E+00
         21   -1    0    0  503  502  0.00000000000E+00  0.00000000000E+00  0.31436056591E+02  0.31436056591E+02  0.00000000000E+00 0. -1.
         21   -1    0    0  502  503 -0.00000000000E+00 -0.00000000000E+00 -0.12426375674E+03  0.12426375674E+03  0.00000000000E+00 0. -1.
         25    2    1    2    0    0  0.00000000000E+00  0.17763568394E-14 -0.92827700149E+02  0.15569981333E+03  0.12500179981E+03 0.  0.
    9000006    2    3    3    0    0 -0.38281802003E+01 -0.70272189265E+01 -0.65783721404E+02  0.89395513001E+02  0.60000191445E+02 0.  0.
    9000007    2    3    3    0    0  0.38281802003E+01  0.70272189265E+01 -0.27043978745E+02  0.66304300329E+02  0.60007055305E+02 0.  0.
          5    1    4    4  501    0 -0.25913984860E+02 -0.14418703113E+02 -0.15520238195E+02  0.33799429054E+02  0.47000000000E+01 0. -1.
         -5    1    4    4    0  501  0.22085804659E+02  0.73914841860E+01 -0.50263483209E+02  0.55596083947E+02  0.47000000000E+01 0. -1.
         12    1    5    5    0    0  0.31403393870E+02 -0.19975693604E+01 -0.15505765203E+02  0.35079797383E+02  0.00000000000E+00 0.  1.
        -12    1    5    5    0    0 -0.27575213669E+02  0.90247882869E+01 -0.11538213542E+02  0.31224502947E+02  0.00000000000E+00 0.  1.
<mgrwt>
<rscale>  0 0.12500180E+03</rscale>
<asrwt>0</asrwt>
<pdfrwt beam="1">  1       21 0.48363163E-02 0.12500180E+03</pdfrwt>
<pdfrwt beam="2">  1       21 0.19117501E-01 0.12500180E+03</pdfrwt>
<totfact> 0.70045579E+06</totfact>
</mgrwt>
</event>
<event>
 9    1  0.4458519E-002  0.1250163E+03  0.7818608E-02  0.1235044E+00
         21   -1    0    0  503  502  0.00000000000E+00  0.00000000000E+00  0.56531059538E+02  0.56531059538E+02  0.00000000000E+00 0.  1.
         21   -1    0    0  502  503 -0.00000000000E+00 -0.00000000000E+00 -0.69117228553E+02  0.69117228553E+02  0.00000000000E+00 0.  1.
         25    2    1    2    0    0  0.17763568394E-14  0.00000000000E+00 -0.12586169014E+02  0.12564828809E+03  0.12501632153E+03 0.  0.
    9000006    2    3    3    0    0  0.87859181878E+01  0.14566614642E+02 -0.20700148984E+01  0.62400876211E+02  0.60001714723E+02 0.  0.
    9000007    2    3    3    0    0 -0.87859181878E+01 -0.14566614642E+02 -0.10516154116E+02  0.63247411880E+02  0.60002224889E+02 0.  0.
          5    1    4    4  501    0 -0.17865493590E+02  0.18689478889E+02 -0.16922898455E+02  0.31256150986E+02  0.47000000000E+01 0. -1.
         -5    1    4    4    0  501  0.26651411778E+02 -0.41228642476E+01  0.14852883556E+02  0.31144725224E+02  0.47000000000E+01 0. -1.
         12    1    5    5    0    0  0.13237125392E+02  0.18297197386E+02 -0.64028392929E+01  0.23473501482E+02  0.00000000000E+00 0. -1.
        -12    1    5    5    0    0 -0.22023043579E+02 -0.32863812028E+02 -0.41133148232E+01  0.39773910398E+02  0.00000000000E+00 0. -1.
<mgrwt>
<rscale>  0 0.12501632E+03</rscale>
<asrwt>0</asrwt>
<pdfrwt beam="1">  1       21 0.86970861E-02 0.12501632E+03</pdfrwt>
<pdfrwt beam="2">  1       21 0.10633420E-01 0.12501632E+03</pdfrwt>
<totfact> 0.73923952E+06</totfact>
</mgrwt>
</event>
<event>
 9    1  0.4458519E-002  0.1250046E+03  0.7818608E-02  0.1235062E+00
         21   -1    0    0  503  502  0.00000000000E+00  0.00000000000E+00  0.30979245264E+02  0.30979245264E+02  0.00000000000E+00 0. -1.
         21   -1    0    0  502  503 -0.00000000000E+00 -0.00000000000E+00 -0.12610175886E+03  0.12610175886E+03  0.00000000000E+00 0. -1.
         25    2    1    2    0    0 -0.17763568394E-14  0.35527136788E-14 -0.95122513599E+02  0.15708100413E+03  0.12500459697E+03 0.  0.
    9000006    2    3    3    0    0  0.86784425228E+01  0.14712056736E+02 -0.42727941181E+02  0.75613819613E+02  0.60000106508E+02 0.  0.
    9000007    2    3    3    0    0 -0.86784425228E+01 -0.14712056736E+02 -0.52394572418E+02  0.81467184514E+02  0.59999591296E+02 0.  0.
          5    1    4    4  501    0  0.16918350609E+02  0.35445899390E+02 -0.28161812882E+02  0.48557389507E+02  0.47000000000E+01 0.  1.
         -5    1    4    4    0  501 -0.82399080863E+01 -0.20733842654E+02 -0.14566128299E+02  0.27056430106E+02  0.47000000000E+01 0.  1.
         12    1    5    5    0    0  0.18667418242E+02  0.48620648151E+01 -0.42081038070E+02  0.46291748110E+02  0.00000000000E+00 0. -1.
        -12    1    5    5    0    0 -0.27345860764E+02 -0.19574121551E+02 -0.10313534348E+02  0.35175436404E+02  0.00000000000E+00 0. -1.
<mgrwt>
<rscale>  0 0.12500460E+03</rscale>
<asrwt>0</asrwt>
<pdfrwt beam="1">  1       21 0.47660377E-02 0.12500460E+03</pdfrwt>
<pdfrwt beam="2">  1       21 0.19400271E-01 0.12500460E+03</pdfrwt>
<totfact> 0.69869767E+06</totfact>
</mgrwt>
</event>
<event>
 9    1  0.4458519E-002  0.1249985E+03  0.7818608E-02  0.1235072E+00
         21   -1    0    0  503  502  0.00000000000E+00  0.00000000000E+00  0.17512517016E+03  0.17512517016E+03  0.00000000000E+00 0.  1.
         21   -1    0    0  502  503 -0.00000000000E+00 -0.00000000000E+00 -0.22304952782E+02  0.22304952782E+02  0.00000000000E+00 0.  1.
         25    2    1    2    0    0 -0.17763568394E-14 -0.17763568394E-14  0.15282021737E+03  0.19743012294E+03  0.12499853841E+03 0.  0.
    9000006    2    3    3    0    0  0.13159757772E+02  0.11383285872E+02  0.73474883254E+02  0.96442693947E+02  0.59998969364E+02 0.  0.
    9000007    2    3    3    0    0 -0.13159757772E+02 -0.11383285872E+02  0.79345334119E+02  0.10098742899E+03  0.60000169549E+02 0.  0.
          5    1    4    4  501    0  0.27108405512E+02 -0.89245725112E+01  0.14498071744E+02  0.32354253633E+02  0.47000000000E+01 0. -1.
         -5    1    4    4    0  501 -0.13948647740E+02  0.20307858383E+02  0.58976811510E+02  0.64088440313E+02  0.47000000000E+01 0. -1.
         12    1    5    5    0    0  0.14051563274E+02 -0.19416705232E+02  0.98305496534E+01  0.25905493221E+02  0.00000000000E+00 0.  1.
        -12    1    5    5    0    0 -0.27211321046E+02  0.80334193602E+01  0.69514784466E+02  0.75081935771E+02  0.00000000000E+00 0.  1.
<mgrwt>
<rscale>  0 0.12499854E+03</rscale>
<asrwt>0</asrwt>
<pdfrwt beam="1">  1       21 0.26942333E-01 0.12499854E+03</pdfrwt>
<pdfrwt beam="2">  1       21 0.34315313E-02 0.12499854E+03</pdfrwt>
<totfact> 0.65208444E+06</totfact>
</mgrwt>
</event>
<event>
 9    1  0.4458519E-002  0.1250078E+03  0.7818608E-02  0.1235057E+00
         21   -1    0    0  503  502  0.00000000000E+00  0.00000000000E+00  0.14852957708E+02  0.14852957708E+02  0.00000000000E+00 0.  1.
         21   -1    0    0  502  503 -0.00000000000E+00 -0.00000000000E+00 -0.26302773953E+03  0.26302773953E+03  0.00000000000E+00 0.  1.
         25    2    1    2    0    0  0.00000000000E+00  0.00000000000E+00 -0.24817478182E+03  0.27788069724E+03  0.12500783801E+03 0.  0.
    9000006    2    3    3    0    0 -0.10807206755E+02  0.13534906433E+02 -0.11833294163E+03  0.13380128623E+03  0.60000914271E+02 0.  0.
    9000007    2    3    3    0    0  0.10807206755E+02 -0.13534906433E+02 -0.12984184019E+03  0.14407941100E+03  0.59999865004E+02 0.  0.
          5    1    4    4  501    0 -0.28115616467E+02  0.25694675291E+02 -0.56669334287E+02  0.68441271731E+02  0.47000000000E+01 0.  1.
         -5    1    4    4    0  501  0.17308409711E+02 -0.12159768858E+02 -0.61663607340E+02  0.65360014501E+02  0.47000000000E+01 0.  1.
         12    1    5    5    0    0 -0.23147350406E+02 -0.10812448759E+02 -0.77740872906E+02  0.81831242195E+02  0.00000000000E+00 0. -1.
        -12    1    5    5    0    0  0.33954557162E+02 -0.27224576737E+01 -0.52100967287E+02  0.62248168809E+02  0.00000000000E+00 0. -1.
<mgrwt>
<rscale>  0 0.12500784E+03</rscale>
<asrwt>0</asrwt>
<pdfrwt beam="1">  1       21 0.22850706E-02 0.12500784E+03</pdfrwt>
<pdfrwt beam="2">  1       21 0.40465802E-01 0.12500784E+03</pdfrwt>
<totfact> 0.57334666E+06</totfact>
</mgrwt>
</event>
<event>
 9    1  0.4458519E-002  0.1249966E+03  0.7818608E-02  0.1235075E+00
         21   -1    0    0  503  502  0.00000000000E+00  0.00000000000E+00  0.89718269271E+02  0.89718269271E+02  0.00000000000E+00 0. -1.
         21   -1    0    0  502  503 -0.00000000000E+00 -0.00000000000E+00 -0.43536667120E+02  0.43536667120E+02  0.00000000000E+00 0. -1.
         25    2    1    2    0    0 -0.17763568394E-14 -0.71054273576E-14  0.46181602151E+02  0.13325493639E+03  0.12499655073E+03 0.  0.
    9000006    2    3    3    0    0  0.27186950935E+01 -0.16769041193E+02  0.27543287822E+02  0.68170533552E+02  0.59999974126E+02 0.  0.
    9000007    2    3    3    0    0 -0.27186950935E+01  0.16769041193E+02  0.18638314329E+02  0.65084402840E+02  0.60000005721E+02 0.  0.
          5    1    4    4  501    0 -0.12252764735E+02 -0.32956628974E+02  0.42055925895E+01  0.35721795112E+02  0.47000000000E+01 0. -1.
         -5    1    4    4    0  501  0.14971459828E+02  0.16187587781E+02  0.23337695233E+02  0.32448738440E+02  0.47000000000E+01 0. -1.
         12    1    5    5    0    0 -0.81235410943E+01  0.34667647662E+02 -0.38781629229E+01  0.35817284402E+02  0.00000000000E+00 0.  1.
        -12    1    5    5    0    0  0.54048460008E+01 -0.17898606469E+02  0.22516477252E+02  0.29267118438E+02  0.00000000000E+00 0.  1.
<mgrwt>
<rscale>  0 0.12499655E+03</rscale>
<asrwt>0</asrwt>
<pdfrwt beam="1">  1       21 0.13802811E-01 0.12499655E+03</pdfrwt>
<pdfrwt beam="2">  1       21 0.66979488E-02 0.12499655E+03</pdfrwt>
<totfact> 0.72934792E+06</totfact>
</mgrwt>
</event>
<event>
 9    1  0.4458519E-002  0.1249965E+03  0.7818608E-02  0.1235075E+00
         21   -1    0    0  503  502  0.00000000000E+00  0.00000000000E+00  0.59208611213E+02  0.59208611213E+02  0.00000000000E+00 0. -1.
         21   -1    0    0  502  503 -0.00000000000E+00 -0.00000000000E+00 -0.65970675041E+02  0.65970675041E+02  0.00000000000E+00 0. -1.
         25    2    1    2    0    0  0.35527136788E-14 -0.17763568394E-14 -0.67620638277E+01  0.12517928625E+03  0.12499651275E+03 0.  0.
    9000006    2    3    3    0    0 -0.48575474206E+00 -0.15635221749E+02  0.44611702200E+01  0.62165698154E+02  0.59999798920E+02 0.  0.
    9000007    2    3    3    0    0  0.48575474206E+00  0.15635221749E+02 -0.11223234048E+02  0.63013588100E+02  0.60000459881E+02 0.  0.
          5    1    4    4  501    0 -0.19658170051E+02  0.74336557356E+01 -0.14871197575E+02  0.26171461646E+02  0.47000000000E+01 0.  1.
         -5    1    4    4    0  501  0.19172415309E+02 -0.23068877485E+02  0.19332367795E+02  0.35994236508E+02  0.47000000000E+01 0.  1.
         12    1    5    5    0    0  0.10911754640E+02  0.36433332002E+02 -0.11546148215E+02  0.39746290502E+02  0.00000000000E+00 0. -1.
        -12    1    5    5    0    0 -0.10425999898E+02 -0.20798110253E+02  0.32291416718E+00  0.23267297598E+02  0.00000000000E+00 0. -1.
<mgrwt>
<rscale>  0 0.12499651E+03</rscale>
<asrwt>0</asrwt>
<pdfrwt beam="1">  1       21 0.91090171E-02 0.12499651E+03</pdfrwt>
<pdfrwt beam="2">  1       21 0.10149335E-01 0.12499651E+03</pdfrwt>
<totfact> 0.74025968E+06</totfact>
</mgrwt>
</event>
<event>
 9    1  0.4458519E-002  0.1249994E+03  0.7818608E-02  0.1235070E+00
         21   -1    0    0  503  502  0.00000000000E+00  0.00000000000E+00  0.27933416204E+03  0.27933416204E+03  0.00000000000E+00 0.  1.
         21   -1    0    0  502  503 -0.00000000000E+00 -0.00000000000E+00 -0.13984002703E+02  0.13984002703E+02  0.00000000000E+00 0.  1.
         25    2    1    2    0    0  0.71054273576E-14  0.88817841970E-15  0.26535015934E+03  0.29331816474E+03  0.12499935483E+03 0.  0.
    9000006    2    3    3    0    0  0.12784421434E+02 -0.69503495143E+01  0.15551791026E+03  0.16732257035E+03  0.59993944261E+02 0.  0.
    9000007    2    3    3    0    0 -0.12784421434E+02  0.69503495143E+01  0.10983224908E+03  0.12599559439E+03  0.60000150654E+02 0.  0.
          5    1    4    4  501    0 -0.22584887222E+02  0.54836287663E+01  0.67235476000E+02  0.71294084946E+02  0.47000000000E+01 0.  1.
         -5    1    4    4    0  501  0.35369308656E+02 -0.12433978281E+02  0.88282434257E+02  0.96028485404E+02  0.47000000000E+01 0.  1.
         12    1    5    5    0    0 -0.33898777434E+02 -0.56610770529E+01  0.44772348913E+02  0.56442343432E+02  0.00000000000E+00 0.  1.
        -12    1    5    5    0    0  0.21114356000E+02  0.12611426567E+02  0.65059900165E+02  0.69553250959E+02  0.00000000000E+00 0.  1.
<mgrwt>
<rscale>  0 0.12499935E+03</rscale>
<asrwt>0</asrwt>
<pdfrwt beam="1">  1       21 0.42974482E-01 0.12499935E+03</pdfrwt>
<pdfrwt beam="2">  1       21 0.21513852E-02 0.12499935E+03</pdfrwt>
<totfact> 0.56016982E+06</totfact>
</mgrwt>
</event>
<event>
 9    1  0.4458519E-002  0.1249992E+03  0.7818608E-02  0.1235070E+00
         21   -1    0    0  503  502  0.00000000000E+00  0.00000000000E+00  0.15424388878E+02  0.15424388878E+02  0.00000000000E+00 0.  1.
         21   -1    0    0  502  503 -0.00000000000E+00 -0.00000000000E+00 -0.25324846903E+03  0.25324846903E+03  0.00000000000E+00 0.  1.
         25    2    1    2    0    0  0.17763568394E-14 -0.88817841970E-15 -0.23782408015E+03  0.26867285791E+03  0.12499924590E+03 0.  0.
    9000006    2    3    3    0    0 -0.81334792890E+01  0.43585374147E+01 -0.15087427055E+03  0.16262901038E+03  0.59999993077E+02 0.  0.
    9000007    2    3    3    0    0  0.81334792890E+01 -0.43585374147E+01 -0.86949809605E+02  0.10604384753E+03  0.59998982283E+02 0.  0.
          5    1    4    4  501    0  0.14503565340E+02  0.32376468794E+01 -0.13156647292E+03  0.13248646181E+03  0.47000000000E+01 0. -1.
         -5    1    4    4    0  501 -0.22637044629E+02  0.11208905352E+01 -0.19307797624E+02  0.30142548569E+02  0.47000000000E+01 0. -1.
         12    1    5    5    0    0  0.29381125584E+02 -0.16249904992E+02 -0.65457998198E+02  0.73566700897E+02  0.00000000000E+00 0. -1.
        -12    1    5    5    0    0 -0.21247646295E+02  0.11891367577E+02 -0.21491811408E+02  0.32477146634E+02  0.00000000000E+00 0. -1.
<mgrwt>
<rscale>  0 0.12499925E+03</rscale>
<asrwt>0</asrwt>
<pdfrwt beam="1">  1       21 0.23729830E-02 0.12499925E+03</pdfrwt>
<pdfrwt beam="2">  1       21 0.38961302E-01 0.12499925E+03</pdfrwt>
<totfact> 0.58164467E+06</totfact>
</mgrwt>
</event>
<event>
 9    1  0.4458519E-002  0.1249919E+03  0.7818608E-02  0.1235082E+00
         21   -1    0    0  503  502  0.00000000000E+00  0.00000000000E+00  0.11602542534E+03  0.11602542534E+03  0.00000000000E+00 0.  1.
         21   -1    0    0  502  503 -0.00000000000E+00 -0.00000000000E+00 -0.33662835452E+02  0.33662835452E+02  0.00000000000E+00 0.  1.
         25    2    1    2    0    0  0.00000000000E+00  0.00000000000E+00  0.82362589887E+02  0.14968826079E+03  0.12499191656E+03 0.  0.
    9000006    2    3    3    0    0 -0.88283548416E+01  0.62633004527E+01  0.24727929512E+02  0.65790353064E+02  0.59997760596E+02 0.  0.
    9000007    2    3    3    0    0  0.88283548416E+01 -0.62633004527E+01  0.57634660374E+02  0.83897907725E+02  0.59999467185E+02 0.  0.
          5    1    4    4  501    0  0.25288701716E+00  0.26189004917E+02  0.32573117660E+02  0.42059789877E+02  0.47000000000E+01 0. -1.
         -5    1    4    4    0  501 -0.90812418588E+01 -0.19925704464E+02 -0.78451881482E+01  0.23730563187E+02  0.47000000000E+01 0. -1.
         12    1    5    5    0    0  0.10167021927E+02  0.91980292706E+01 -0.83901043664E+01  0.16073765228E+02  0.00000000000E+00 0. -1.
        -12    1    5    5    0    0 -0.13386670858E+01 -0.15461329723E+02  0.66024764741E+02  0.67824142497E+02  0.00000000000E+00 0. -1.
<mgrwt>
<rscale>  0 0.12499192E+03</rscale>
<asrwt>0</asrwt>
<pdfrwt beam="1">  1       21 0.17850065E-01 0.12499192E+03</pdfrwt>
<pdfrwt beam="2">  1       21 0.51788978E-02 0.12499192E+03</pdfrwt>
<totfact> 0.70812953E+06</totfact>
</mgrwt>
</event>
<event>
 9    1  0.4458519E-002  0.1250193E+03  0.7818608E-02  0.1235039E+00
         21   -1    0    0  503  502  0.00000000000E+00  0.00000000000E+00  0.10495186965E+03  0.10495186965E+03  0.00000000000E+00 0. -1.
         21   -1    0    0  502  503 -0.00000000000E+00 -0.00000000000E+00 -0.37230929848E+02  0.37230929848E+02  0.00000000000E+00 0. -1.
         25    2    1    2    0    0 -0.17763568394E-14  0.00000000000E+00  0.67720939799E+02  0.14218279950E+03  0.12501928965E+03 0.  0.
    9000006    2    3    3    0    0  0.30983759042E+01 -0.13128929657E+02  0.46601428077E+02  0.77159307254E+02  0.59999140576E+02 0.  0.
    9000007    2    3    3    0    0 -0.30983759042E+01  0.13128929657E+02  0.21119511722E+02  0.65023492242E+02  0.60000433672E+02 0.  0.
          5    1    4    4  501    0 -0.38608728543E+01  0.23103752949E+02  0.13937767441E+02  0.27659376362E+02  0.47000000000E+01 0.  1.
         -5    1    4    4    0  501  0.69592487585E+01 -0.36232682606E+02  0.32663660636E+02  0.49499930892E+02  0.47000000000E+01 0.  1.
         12    1    5    5    0    0 -0.25661430070E+02  0.22527139279E+02  0.23891972287E+01  0.34229946841E+02  0.00000000000E+00 0. -1.
        -12    1    5    5    0    0  0.22563054166E+02 -0.93982096214E+01  0.18730314493E+02  0.30793545402E+02  0.00000000000E+00 0. -1.
<mgrwt>
<rscale>  0 0.12501929E+03</rscale>
<asrwt>0</asrwt>
<pdfrwt beam="1">  1       21 0.16146441E-01 0.12501929E+03</pdfrwt>
<pdfrwt beam="2">  1       21 0.57278354E-02 0.12501929E+03</pdfrwt>
<totfact> 0.71720367E+06</totfact>
</mgrwt>
</event>
<event>
 9    1  0.4458519E-002  0.1250025E+03  0.7818608E-02  0.1235065E+00
         21   -1    0    0  503  502  0.00000000000E+00  0.00000000000E+00  0.42964023170E+01  0.42964023170E+01  0.00000000000E+00 0. -1.
         21   -1    0    0  502  503 -0.00000000000E+00 -0.00000000000E+00 -0.90922755559E+03  0.90922755559E+03  0.00000000000E+00 0. -1.
         25    2    1    2    0    0  0.00000000000E+00  0.17763568394E-14 -0.90493115327E+03  0.91352395791E+03  0.12500251800E+03 0.  0.
    9000006    2    3    3    0    0 -0.14631616137E+02  0.10187299188E+01 -0.38269529831E+03  0.38764815101E+03  0.60002296858E+02 0.  0.
    9000007    2    3    3    0    0  0.14631616137E+02 -0.10187299188E+01 -0.52223585496E+03  0.52587580690E+03  0.59999617279E+02 0.  0.
          5    1    4    4  501    0 -0.11845980715E+02  0.20664660893E+02 -0.66454256640E+02  0.70750361797E+02  0.47000000000E+01 0. -1.
         -5    1    4    4    0  501 -0.27856354219E+01 -0.19645930974E+02 -0.31624104167E+03  0.31689778921E+03  0.47000000000E+01 0. -1.
         12    1    5    5    0    0  0.33595425353E+02  0.15133416687E+02 -0.31609420281E+03  0.31823453293E+03  0.00000000000E+00 0. -1.
        -12    1    5    5    0    0 -0.18963809217E+02 -0.16152146605E+02 -0.20614165216E+03  0.20764127396E+03  0.00000000000E+00 0. -1.
<mgrwt>
<rscale>  0 0.12500252E+03</rscale>
<asrwt>0</asrwt>
<pdfrwt beam="1">  1       21 0.66098469E-03 0.12500252E+03</pdfrwt>
<pdfrwt beam="2">  1       21 0.13988122E+00 0.12500252E+03</pdfrwt>
<totfact> 0.25912354E+06</totfact>
</mgrwt>
</event>
<event>
 9    1  0.4458519E-002  0.1250024E+03  0.7818608E-02  0.1235065E+00
         21   -1    0    0  503  502  0.00000000000E+00  0.00000000000E+00  0.12882134007E+03  0.12882134007E+03  0.00000000000E+00 0. -1.
         21   -1    0    0  502  503 -0.00000000000E+00 -0.00000000000E+00 -0.30324179651E+02  0.30324179651E+02  0.00000000000E+00 0. -1.
         25    2    1    2    0    0 -0.17763568394E-14  0.17763568394E-14  0.98497160419E+02  0.15914551972E+03  0.12500242332E+03 0.  0.
    9000006    2    3    3    0    0 -0.21578186073E+01 -0.14959761552E+01  0.71277723436E+02  0.93205972025E+02  0.59999543642E+02 0.  0.
    9000007    2    3    3    0    0  0.21578186073E+01  0.14959761552E+01  0.27219436983E+02  0.65939547696E+02  0.60001933926E+02 0.  0.
          5    1    4    4  501    0  0.20752803282E+02  0.19299592399E+02  0.35678964626E+02  0.45806458361E+02  0.47000000000E+01 0.  1.
         -5    1    4    4    0  501 -0.22910621889E+02 -0.20795568554E+02  0.35598758810E+02  0.47399513664E+02  0.47000000000E+01 0.  1.
         12    1    5    5    0    0 -0.13154262303E+02 -0.11671398063E+02 -0.12367411304E+02  0.21499046766E+02  0.00000000000E+00 0. -1.
        -12    1    5    5    0    0  0.15312080910E+02  0.13167374218E+02  0.39586848287E+02  0.44440500930E+02  0.00000000000E+00 0. -1.
<mgrwt>
<rscale>  0 0.12500242E+03</rscale>
<asrwt>0</asrwt>
<pdfrwt beam="1">  1       21 0.19818667E-01 0.12500242E+03</pdfrwt>
<pdfrwt beam="2">  1       21 0.46652585E-02 0.12500242E+03</pdfrwt>
<totfact> 0.69619765E+06</totfact>
</mgrwt>
</event>
<event>
 9    1  0.4458519E-002  0.1249966E+03  0.7818608E-02  0.1235075E+00
         21   -1    0    0  503  502  0.00000000000E+00  0.00000000000E+00  0.20120656446E+02  0.20120656446E+02  0.00000000000E+00 0. -1.
         21   -1    0    0  502  503 -0.00000000000E+00 -0.00000000000E+00 -0.19413086561E+03  0.19413086561E+03  0.00000000000E+00 0. -1.
         25    2    1    2    0    0 -0.35527136788E-14  0.00000000000E+00 -0.17401020916E+03  0.21425152205E+03  0.12499664719E+03 0.  0.
    9000006    2    3    3    0    0  0.84060392119E+01 -0.10980053877E+02 -0.68698909962E+02  0.92256030805E+02  0.60003432499E+02 0.  0.
    9000007    2    3    3    0    0 -0.84060392119E+01  0.10980053877E+02 -0.10531129920E+03  0.12199549125E+03  0.60010058050E+02 0.  0.
          5    1    4    4  501    0  0.32950867140E+02 -0.11350684348E+02 -0.49594673397E+02  0.60797362688E+02  0.47000000000E+01 0. -1.
         -5    1    4    4    0  501 -0.24544827928E+02  0.37063047030E+00 -0.19104236564E+02  0.31458668117E+02  0.47000000000E+01 0. -1.
         12    1    5    5    0    0  0.19906972540E+02  0.10873712622E+02 -0.82720612612E+02  0.85774267312E+02  0.00000000000E+00 0.  1.
        -12    1    5    5    0    0 -0.28313011751E+02  0.10634125596E+00 -0.22590686586E+02  0.36221223935E+02  0.00000000000E+00 0.  1.
<mgrwt>
<rscale>  0 0.12499665E+03</rscale>
<asrwt>0</asrwt>
<pdfrwt beam="1">  1       21 0.30954857E-02 0.12499665E+03</pdfrwt>
<pdfrwt beam="2">  1       21 0.29866287E-01 0.12499665E+03</pdfrwt>
<totfact> 0.63420361E+06</totfact>
</mgrwt>
</event>
<event>
 9    1  0.4458519E-002  0.1249970E+03  0.7818608E-02  0.1235074E+00
         21   -1    0    0  503  502  0.00000000000E+00  0.00000000000E+00  0.16256269911E+03  0.16256269911E+03  0.00000000000E+00 0.  1.
         21   -1    0    0  502  503 -0.00000000000E+00 -0.00000000000E+00 -0.24028022731E+02  0.24028022731E+02  0.00000000000E+00 0.  1.
         25    2    1    2    0    0  0.17763568394E-14  0.35527136788E-14  0.13853467638E+03  0.18659072184E+03  0.12499696364E+03 0.  0.
    9000006    2    3    3    0    0 -0.10503275622E+02  0.12793069441E+02  0.60802582550E+02  0.87010877468E+02  0.59999644402E+02 0.  0.
    9000007    2    3    3    0    0  0.10503275622E+02 -0.12793069441E+02  0.77732093831E+02  0.99579844376E+02  0.59999046410E+02 0.  0.
          5    1    4    4  501    0 -0.59251404611E+01  0.36633664655E+02  0.39089563806E+02  0.54103758410E+02  0.47000000000E+01 0.  1.
         -5    1    4    4    0  501 -0.45781351609E+01 -0.23840595214E+02  0.21713018744E+02  0.32907119058E+02  0.47000000000E+01 0.  1.
         12    1    5    5    0    0 -0.24338579843E+02 -0.12029555021E+02  0.29731868057E+02  0.40262397357E+02  0.00000000000E+00 0.  1.
        -12    1    5    5    0    0  0.34841855465E+02 -0.76351441988E+00  0.48000225774E+02  0.59317447019E+02  0.00000000000E+00 0.  1.
<mgrwt>
<rscale>  0 0.12499696E+03</rscale>
<asrwt>0</asrwt>
<pdfrwt beam="1">  1       21 0.25009645E-01 0.12499696E+03</pdfrwt>
<pdfrwt beam="2">  1       21 0.36966190E-02 0.12499696E+03</pdfrwt>
<totfact> 0.66408505E+06</totfact>
</mgrwt>
</event>
<event>
 9    1  0.4458519E-002  0.1250066E+03  0.7818608E-02  0.1235059E+00
         21   -1    0    0  503  502  0.00000000000E+00  0.00000000000E+00  0.40097806854E+02  0.40097806854E+02  0.00000000000E+00 0.  1.
         21   -1    0    0  502  503 -0.00000000000E+00 -0.00000000000E+00 -0.97428395811E+02  0.97428395811E+02  0.00000000000E+00 0.  1.
         25    2    1    2    0    0  0.00000000000E+00  0.00000000000E+00 -0.57330588957E+02  0.13752620267E+03  0.12500663978E+03 0.  0.
    9000006    2    3    3    0    0 -0.14977847016E+02  0.67178577364E+01 -0.35378590460E+02  0.71561713085E+02  0.59999738357E+02 0.  0.
    9000007    2    3    3    0    0  0.14977847016E+02 -0.67178577364E+01 -0.21951998497E+02  0.65964489580E+02  0.59999651114E+02 0.  0.
          5    1    4    4  501    0 -0.83901865236E+01  0.33473964554E+01  0.16259434827E+02  0.19184877217E+02  0.47000000000E+01 0.  1.
         -5    1    4    4    0  501 -0.65876604929E+01  0.33704612810E+01 -0.51638025287E+02  0.52376835868E+02  0.47000000000E+01 0.  1.
         12    1    5    5    0    0  0.77503839828E+01 -0.39686992460E+01  0.20784142661E+02  0.22534409505E+02  0.00000000000E+00 0.  1.
        -12    1    5    5    0    0  0.72274630336E+01 -0.27491584904E+01 -0.42736141158E+02  0.43430080076E+02  0.00000000000E+00 0.  1.
<mgrwt>
<rscale>  0 0.12500664E+03</rscale>
<asrwt>0</asrwt>
<pdfrwt beam="1">  1       21 0.61688934E-02 0.12500664E+03</pdfrwt>
<pdfrwt beam="2">  1       21 0.14988984E-01 0.12500664E+03</pdfrwt>
<totfact> 0.72351431E+06</totfact>
</mgrwt>
</event>
<event>
 9    1  0.4458519E-002  0.1249973E+03  0.7818608E-02  0.1235073E+00
         21   -1    0    0  503  502  0.00000000000E+00  0.00000000000E+00  0.35770106380E+03  0.35770106380E+03  0.00000000000E+00 0. -1.
         21   -1    0    0  502  503 -0.00000000000E+00 -0.00000000000E+00 -0.10919963006E+02  0.10919963006E+02  0.00000000000E+00 0. -1.
         25    2    1    2    0    0  0.00000000000E+00  0.00000000000E+00  0.34678110079E+03  0.36862102680E+03  0.12499731811E+03 0.  0.
    9000006    2    3    3    0    0 -0.40978571607E+01 -0.16664583941E+02  0.18348052305E+03  0.19380277230E+03  0.59999261833E+02 0.  0.
    9000007    2    3    3    0    0  0.40978571607E+01  0.16664583941E+02  0.16330057774E+03  0.17481825450E+03  0.59998688539E+02 0.  0.
          5    1    4    4  501    0  0.13649980875E+02 -0.26789742234E+02  0.15752132896E+03  0.16043400931E+03  0.47000000000E+01 0.  1.
         -5    1    4    4    0  501 -0.17747838036E+02  0.10125158293E+02  0.25959194092E+02  0.33368762987E+02  0.47000000000E+01 0.  1.
         12    1    5    5    0    0 -0.67662116936E+01  0.31083229440E+02  0.14729648004E+03  0.15069240792E+03  0.00000000000E+00 0.  1.
        -12    1    5    5    0    0  0.10864068854E+02 -0.14418645500E+02  0.16004097700E+02  0.24125846582E+02  0.00000000000E+00 0.  1.
<mgrwt>
<rscale>  0 0.12499732E+03</rscale>
<asrwt>0</asrwt>
<pdfrwt beam="1">  1       21 0.55030924E-01 0.12499732E+03</pdfrwt>
<pdfrwt beam="2">  1       21 0.16799946E-02 0.12499732E+03</pdfrwt>
<totfact> 0.50195310E+06</totfact>
</mgrwt>
</event>
<event>
 9    1  0.4458519E-002  0.1249976E+03  0.7818608E-02  0.1235073E+00
         21   -1    0    0  503  502  0.00000000000E+00  0.00000000000E+00  0.21266150973E+01  0.21266150973E+01  0.00000000000E+00 0.  1.
         21   -1    0    0  502  503 -0.00000000000E+00 -0.00000000000E+00 -0.18367693773E+04  0.18367693773E+04  0.00000000000E+00 0.  1.
         25    2    1    2    0    0  0.00000000000E+00  0.17763568394E-14 -0.18346427622E+04  0.18388959924E+04  0.12499762379E+03 0.  0.
    9000006    2    3    3    0    0 -0.63273980969E+01 -0.86709978940E+01 -0.71406598794E+03  0.71666273843E+03  0.60000194549E+02 0.  0.
    9000007    2    3    3    0    0  0.63273980969E+01  0.86709978940E+01 -0.11205767743E+04  0.11222332540E+04  0.59999559403E+02 0.  0.
          5    1    4    4  501    0 -0.15543203487E+02  0.22458075272E+02 -0.37007373306E+03  0.37110997591E+03  0.47000000000E+01 0.  1.
         -5    1    4    4    0  501  0.92158053905E+01 -0.31129073166E+02 -0.34399225488E+03  0.34555276252E+03  0.47000000000E+01 0.  1.
         12    1    5    5    0    0 -0.24889626753E+02  0.13698917203E+02 -0.43412420802E+03  0.43505284948E+03  0.00000000000E+00 0.  1.
        -12    1    5    5    0    0  0.31217024850E+02 -0.50279193094E+01 -0.68645256626E+03  0.68718040450E+03  0.00000000000E+00 0.  1.
<mgrwt>
<rscale>  0 0.12499762E+03</rscale>
<asrwt>0</asrwt>
<pdfrwt beam="1">  1       21 0.32717177E-03 0.12499762E+03</pdfrwt>
<pdfrwt beam="2">  1       21 0.28257972E+00 0.12499762E+03</pdfrwt>
<totfact> 0.96301328E+05</totfact>
</mgrwt>
</event>
<event>
 9    1  0.4458519E-002  0.1249993E+03  0.7818608E-02  0.1235070E+00
         21   -1    0    0  503  502  0.00000000000E+00  0.00000000000E+00  0.15991224142E+03  0.15991224142E+03  0.00000000000E+00 0.  1.
         21   -1    0    0  502  503 -0.00000000000E+00 -0.00000000000E+00 -0.24427204011E+02  0.24427204011E+02  0.00000000000E+00 0.  1.
         25    2    1    2    0    0  0.00000000000E+00 -0.17763568394E-14  0.13548503741E+03  0.18433944543E+03  0.12499934312E+03 0.  0.
    9000006    2    3    3    0    0  0.14369568347E+02 -0.54771941554E+01  0.80062095330E+02  0.10122398552E+03  0.59998933208E+02 0.  0.
    9000007    2    3    3    0    0 -0.14369568347E+02  0.54771941554E+01  0.55422942080E+02  0.83115459909E+02  0.59999941806E+02 0.  0.
          5    1    4    4  501    0 -0.10583979879E+02  0.17595902091E+02  0.10227345215E+02  0.23416340248E+02  0.47000000000E+01 0. -1.
         -5    1    4    4    0  501  0.24953548226E+02 -0.23073096247E+02  0.69834750114E+02  0.77807645274E+02  0.47000000000E+01 0. -1.
         12    1    5    5    0    0  0.80468535429E+01 -0.84243984418E+01 -0.81966426612E+01  0.14244553063E+02  0.00000000000E+00 0. -1.
        -12    1    5    5    0    0 -0.22416421890E+02  0.13901592597E+02  0.63619584741E+02  0.68870906846E+02  0.00000000000E+00 0. -1.
<mgrwt>
<rscale>  0 0.12499934E+03</rscale>
<asrwt>0</asrwt>
<pdfrwt beam="1">  1       21 0.24601883E-01 0.12499934E+03</pdfrwt>
<pdfrwt beam="2">  1       21 0.37580315E-02 0.12499934E+03</pdfrwt>
<totfact> 0.66658293E+06</totfact>
</mgrwt>
</event>
<event>
 9    1  0.4458519E-002  0.1249992E+03  0.7818608E-02  0.1235071E+00
         21   -1    0    0  503  502  0.00000000000E+00  0.00000000000E+00  0.67165206042E+02  0.67165206042E+02  0.00000000000E+00 0.  1.
         21   -1    0    0  502  503 -0.00000000000E+00 -0.00000000000E+00 -0.58158062273E+02  0.58158062273E+02  0.00000000000E+00 0.  1.
         25    2    1    2    0    0 -0.17763568394E-14 -0.17763568394E-14  0.90071437692E+01  0.12532326832E+03  0.12499917177E+03 0.  0.
    9000006    2    3    3    0    0 -0.10717187631E+02 -0.11922935972E+02 -0.25240524531E+01  0.62156939602E+02  0.60000831552E+02 0.  0.
    9000007    2    3    3    0    0  0.10717187631E+02  0.11922935972E+02  0.11531196222E+02  0.63166328714E+02  0.60000017366E+02 0.  0.
          5    1    4    4  501    0 -0.68902670739E+01 -0.34874255901E+02 -0.10075906533E+02  0.37246521952E+02  0.47000000000E+01 0.  1.
         -5    1    4    4    0  501 -0.38269205575E+01  0.22951319929E+02  0.75518540800E+01  0.24910417650E+02  0.47000000000E+01 0.  1.
         12    1    5    5    0    0  0.20936124767E+02 -0.53911687104E+01  0.29246891552E+02  0.36369859578E+02  0.00000000000E+00 0.  1.
        -12    1    5    5    0    0 -0.10218937136E+02  0.17314104682E+02 -0.17715695329E+02  0.26796469136E+02  0.00000000000E+00 0.  1.
<mgrwt>
<rscale>  0 0.12499917E+03</rscale>
<asrwt>0</asrwt>
<pdfrwt beam="1">  1       21 0.10333109E-01 0.12499917E+03</pdfrwt>
<pdfrwt beam="2">  1       21 0.89473941E-02 0.12499917E+03</pdfrwt>
<totfact> 0.74001497E+06</totfact>
</mgrwt>
</event>
<event>
 9    1  0.4458519E-002  0.1250060E+03  0.7818608E-02  0.1235060E+00
         21   -1    0    0  503  502  0.00000000000E+00  0.00000000000E+00  0.17179890505E+03  0.17179890505E+03  0.00000000000E+00 0. -1.
         21   -1    0    0  502  503 -0.00000000000E+00 -0.00000000000E+00 -0.22739522053E+02  0.22739522053E+02  0.00000000000E+00 0. -1.
         25    2    1    2    0    0 -0.35527136788E-14  0.35527136788E-14  0.14905938300E+03  0.19453842710E+03  0.12500599970E+03 0.  0.
    9000006    2    3    3    0    0  0.17123893696E+02 -0.36177718207E+01  0.73624512304E+02  0.96575457838E+02  0.59999451966E+02 0.  0.
    9000007    2    3    3    0    0 -0.17123893696E+02  0.36177718207E+01  0.75434870694E+02  0.97962969266E+02  0.60000063522E+02 0.  0.
          5    1    4    4  501    0  0.24007526721E+02 -0.20483236932E+02  0.70661227401E+02  0.77530789963E+02  0.47000000000E+01 0.  1.
         -5    1    4    4    0  501 -0.68836330253E+01  0.16865465111E+02  0.29632849035E+01  0.19044667875E+02  0.47000000000E+01 0.  1.
         12    1    5    5    0    0  0.14435062888E+02 -0.16528176169E+02  0.14037289604E+02  0.26049897265E+02  0.00000000000E+00 0.  1.
        -12    1    5    5    0    0 -0.31558956583E+02  0.20145947990E+02  0.61397581089E+02  0.71913072001E+02  0.00000000000E+00 0.  1.
<mgrwt>
<rscale>  0 0.12500600E+03</rscale>
<asrwt>0</asrwt>
<pdfrwt beam="1">  1       21 0.26430600E-01 0.12500600E+03</pdfrwt>
<pdfrwt beam="2">  1       21 0.34983881E-02 0.12500600E+03</pdfrwt>
<totfact> 0.65511619E+06</totfact>
</mgrwt>
</event>
<event>
 9    1  0.4458519E-002  0.1249967E+03  0.7818608E-02  0.1235074E+00
         21   -1    0    0  503  502  0.00000000000E+00  0.00000000000E+00  0.48762596743E+03  0.48762596743E+03  0.00000000000E+00 0. -1.
         21   -1    0    0  502  503 -0.00000000000E+00 -0.00000000000E+00 -0.80103245012E+01  0.80103245012E+01  0.00000000000E+00 0. -1.
         25    2    1    2    0    0  0.00000000000E+00  0.00000000000E+00  0.47961564293E+03  0.49563629193E+03  0.12499667571E+03 0.  0.
    9000006    2    3    3    0    0  0.16004619435E+02  0.12996318272E+01  0.21227225693E+03  0.22117262082E+03  0.59999835455E+02 0.  0.
    9000007    2    3    3    0    0 -0.16004619435E+02 -0.12996318272E+01  0.26734338600E+03  0.27446367111E+03  0.59999865276E+02 0.  0.
          5    1    4    4  501    0  0.28756743161E+02  0.19312371385E+02  0.16662807176E+03  0.17025546178E+03  0.47000000000E+01 0. -1.
         -5    1    4    4    0  501 -0.12752123726E+02 -0.18012739558E+02  0.45644185161E+02  0.50917159043E+02  0.47000000000E+01 0. -1.
         12    1    5    5    0    0  0.76781062314E+01 -0.18797151997E+02  0.19917882552E+03  0.20021111551E+03  0.00000000000E+00 0.  1.
        -12    1    5    5    0    0 -0.23682725667E+02  0.17497520170E+02  0.68164560481E+02  0.74252555597E+02  0.00000000000E+00 0.  1.
<mgrwt>
<rscale>  0 0.12499668E+03</rscale>
<asrwt>0</asrwt>
<pdfrwt beam="1">  1       21 0.75019356E-01 0.12499668E+03</pdfrwt>
<pdfrwt beam="2">  1       21 0.12323580E-02 0.12499668E+03</pdfrwt>
<totfact> 0.42285226E+06</totfact>
</mgrwt>
</event>
<event>
 9    1  0.4458519E-002  0.1250011E+03  0.7818608E-02  0.1235068E+00
         21   -1    0    0  503  502  0.00000000000E+00  0.00000000000E+00  0.31753014662E+02  0.31753014662E+02  0.00000000000E+00 0. -1.
         21   -1    0    0  502  503 -0.00000000000E+00 -0.00000000000E+00 -0.12302199776E+03  0.12302199776E+03  0.00000000000E+00 0. -1.
         25    2    1    2    0    0  0.00000000000E+00  0.88817841970E-15 -0.91268983103E+02  0.15477501243E+03  0.12500110877E+03 0.  0.
    9000006    2    3    3    0    0  0.94849976865E+01  0.75064529075E+01 -0.61294466338E+02  0.86622067749E+02  0.60000491674E+02 0.  0.
    9000007    2    3    3    0    0 -0.94849976865E+01 -0.75064529075E+01 -0.29974516765E+02  0.68152944678E+02  0.60000334970E+02 0.  0.
          5    1    4    4  501    0 -0.21898067546E+02 -0.37023347239E+01 -0.89694496972E+01  0.24408475424E+02  0.47000000000E+01 0.  1.
         -5    1    4    4    0  501  0.31383065232E+02  0.11208787631E+02 -0.52325016641E+02  0.62213592325E+02  0.47000000000E+01 0.  1.
         12    1    5    5    0    0 -0.32129837521E+02 -0.14472751667E+02 -0.26750908661E+02  0.44242492178E+02  0.00000000000E+00 0. -1.
        -12    1    5    5    0    0  0.22644839834E+02  0.69662987592E+01 -0.32236081041E+01  0.23910452499E+02  0.00000000000E+00 0. -1.
<mgrwt>
<rscale>  0 0.12500111E+03</rscale>
<asrwt>0</asrwt>
<pdfrwt beam="1">  1       21 0.48850793E-02 0.12500111E+03</pdfrwt>
<pdfrwt beam="2">  1       21 0.18926461E-01 0.12500111E+03</pdfrwt>
<totfact> 0.70161654E+06</totfact>
</mgrwt>
</event>
<event>
 9    1  0.4458519E-002  0.1249968E+03  0.7818608E-02  0.1235074E+00
         21   -1    0    0  503  502  0.00000000000E+00  0.00000000000E+00  0.55040246337E+01  0.55040246337E+01  0.00000000000E+00 0.  1.
         21   -1    0    0  502  503 -0.00000000000E+00 -0.00000000000E+00 -0.70967108120E+03  0.70967108120E+03  0.00000000000E+00 0.  1.
         25    2    1    2    0    0  0.00000000000E+00  0.00000000000E+00 -0.70416705657E+03  0.71517510583E+03  0.12499675376E+03 0.  0.
    9000006    2    3    3    0    0  0.16946902877E+02 -0.34894685665E+01 -0.33766404553E+03  0.34339046892E+03  0.60005271424E+02 0.  0.
    9000007    2    3    3    0    0 -0.16946902877E+02  0.34894685665E+01 -0.36650301104E+03  0.37178463691E+03  0.59999876938E+02 0.  0.
          5    1    4    4  501    0  0.21353595973E+02 -0.17534703153E+02 -0.71779942286E+02  0.77057718564E+02  0.47000000000E+01 0. -1.
         -5    1    4    4    0  501 -0.44066930967E+01  0.14045234586E+02 -0.26588410324E+03  0.26633275036E+03  0.47000000000E+01 0. -1.
         12    1    5    5    0    0 -0.28214501052E+02  0.12764423700E+02 -0.95636617404E+02  0.10052537575E+03  0.00000000000E+00 0. -1.
        -12    1    5    5    0    0  0.11267598175E+02 -0.92749551331E+01 -0.27086639364E+03  0.27125926116E+03  0.00000000000E+00 0. -1.
<mgrwt>
<rscale>  0 0.12499675E+03</rscale>
<asrwt>0</asrwt>
<pdfrwt beam="1">  1       21 0.84677342E-03 0.12499675E+03</pdfrwt>
<pdfrwt beam="2">  1       21 0.10918012E+00 0.12499675E+03</pdfrwt>
<totfact> 0.32335855E+06</totfact>
</mgrwt>
</event>
<event>
 9    1  0.4458519E-002  0.1250047E+03  0.7818608E-02  0.1235062E+00
         21   -1    0    0  503  502  0.00000000000E+00  0.00000000000E+00  0.54692606168E+02  0.54692606168E+02  0.00000000000E+00 0. -1.
         21   -1    0    0  502  503 -0.00000000000E+00 -0.00000000000E+00 -0.71427326943E+02  0.71427326943E+02  0.00000000000E+00 0. -1.
         25    2    1    2    0    0  0.88817841970E-15 -0.17763568394E-14 -0.16734720775E+02  0.12611993311E+03  0.12500474650E+03 0.  0.
    9000006    2    3    3    0    0  0.40267091615E+01 -0.15809449703E+02 -0.19918596338E+01  0.62210403903E+02  0.60000114686E+02 0.  0.
    9000007    2    3    3    0    0 -0.40267091615E+01  0.15809449703E+02 -0.14742861142E+02  0.63909529209E+02  0.60007690194E+02 0.  0.
          5    1    4    4  501    0  0.98482494347E+01 -0.17713327515E+02  0.25927834219E+02  0.33242932720E+02  0.47000000000E+01 0.  1.
         -5    1    4    4    0  501 -0.58215402732E+01  0.19038778116E+01 -0.27919693852E+02  0.28967471182E+02  0.47000000000E+01 0.  1.
         12    1    5    5    0    0  0.36815829943E+01  0.11495449153E+02 -0.37554849038E+02  0.39447003573E+02  0.00000000000E+00 0.  1.
        -12    1    5    5    0    0 -0.77082921558E+01  0.43140005507E+01  0.22811987897E+02  0.24462525636E+02  0.00000000000E+00 0.  1.
<mgrwt>
<rscale>  0 0.12500475E+03</rscale>
<asrwt>0</asrwt>
<pdfrwt beam="1">  1       21 0.84142471E-02 0.12500475E+03</pdfrwt>
<pdfrwt beam="2">  1       21 0.10988820E-01 0.12500475E+03</pdfrwt>
<totfact> 0.73880572E+06</totfact>
</mgrwt>
</event>
<event>
 9    1  0.4458519E-002  0.1250035E+03  0.7818608E-02  0.1235064E+00
         21   -1    0    0  503  502  0.00000000000E+00  0.00000000000E+00  0.92531739664E+01  0.92531739664E+01  0.00000000000E+00 0. -1.
         21   -1    0    0  502  503 -0.00000000000E+00 -0.00000000000E+00 -0.42217579229E+03  0.42217579229E+03  0.00000000000E+00 0. -1.
         25    2    1    2    0    0  0.88817841970E-15 -0.17763568394E-14 -0.41292261833E+03  0.43142896626E+03  0.12500345676E+03 0.  0.
    9000006    2    3    3    0    0 -0.32983765187E+00 -0.14759923051E+02 -0.17399256201E+03  0.18463847766E+03  0.59999930636E+02 0.  0.
    9000007    2    3    3    0    0  0.32983765187E+00  0.14759923051E+02 -0.23893005631E+03  0.24679048860E+03  0.60000077754E+02 0.  0.
          5    1    4    4  501    0  0.64561787593E+01 -0.36915062083E+02 -0.96841512012E+02  0.10394600763E+03  0.47000000000E+01 0. -1.
         -5    1    4    4    0  501 -0.67860164111E+01  0.22155139032E+02 -0.77151049999E+02  0.80692470034E+02  0.47000000000E+01 0. -1.
         12    1    5    5    0    0 -0.17900350266E+02 -0.14274181386E+02 -0.14506701341E+03  0.14686256560E+03  0.00000000000E+00 0.  1.
        -12    1    5    5    0    0  0.18230187918E+02  0.29034104438E+02 -0.93863042900E+02  0.99927922997E+02  0.00000000000E+00 0.  1.
<mgrwt>
<rscale>  0 0.12500346E+03</rscale>
<asrwt>0</asrwt>
<pdfrwt beam="1">  1       21 0.14235655E-02 0.12500346E+03</pdfrwt>
<pdfrwt beam="2">  1       21 0.64950108E-01 0.12500346E+03</pdfrwt>
<totfact> 0.46020285E+06</totfact>
</mgrwt>
</event>
<event>
 9    1  0.4458519E-002  0.1249971E+03  0.7818608E-02  0.1235074E+00
         21   -1    0    0  503  502  0.00000000000E+00  0.00000000000E+00  0.38079353966E+02  0.38079353966E+02  0.00000000000E+00 0. -1.
         21   -1    0    0  502  503 -0.00000000000E+00 -0.00000000000E+00 -0.10257702998E+03  0.10257702998E+03  0.00000000000E+00 0. -1.
         25    2    1    2    0    0  0.44408920985E-15  0.00000000000E+00 -0.64497676013E+02  0.14065638395E+03  0.12499707250E+03 0.  0.
    9000006    2    3    3    0    0 -0.31555191994E+01 -0.24071267484E+01 -0.13068986343E+02  0.61534704343E+02  0.59999748949E+02 0.  0.
    9000007    2    3    3    0    0  0.31555191994E+01  0.24071267484E+01 -0.51428689670E+02  0.79121679603E+02  0.59996487409E+02 0.  0.
          5    1    4    4  501    0  0.59571727435E+00 -0.27403810342E+02 -0.20754117485E+02  0.34700822655E+02  0.47000000000E+01 0. -1.
         -5    1    4    4    0  501 -0.37512364738E+01  0.24996683594E+02  0.76851311418E+01  0.26833881688E+02  0.47000000000E+01 0. -1.
         12    1    5    5    0    0 -0.14784717347E+02 -0.21892520100E+02 -0.10904649156E+02  0.28579392516E+02  0.00000000000E+00 0.  1.
        -12    1    5    5    0    0  0.17940236547E+02  0.24299646849E+02 -0.40524040514E+02  0.50542287086E+02  0.00000000000E+00 0.  1.
<mgrwt>
<rscale>  0 0.12499707E+03</rscale>
<asrwt>0</asrwt>
<pdfrwt beam="1">  1       21 0.58583621E-02 0.12499707E+03</pdfrwt>
<pdfrwt beam="2">  1       21 0.15781082E-01 0.12499707E+03</pdfrwt>
<totfact> 0.71959101E+06</totfact>
</mgrwt>
</event>
<event>
 9    1  0.4458519E-002  0.1250048E+03  0.7818608E-02  0.1235062E+00
         21   -1    0    0  503  502  0.00000000000E+00  0.00000000000E+00  0.10955979582E+02  0.10955979582E+02  0.00000000000E+00 0.  1.
         21   -1    0    0  502  503 -0.00000000000E+00 -0.00000000000E+00 -0.35656794713E+03  0.35656794713E+03  0.00000000000E+00 0.  1.
         25    2    1    2    0    0 -0.35527136788E-14 -0.35527136788E-14 -0.34561196755E+03  0.36752392671E+03  0.12500481828E+03 0.  0.
    9000006    2    3    3    0    0 -0.13644181081E+02 -0.10979347565E+02 -0.17387601818E+03  0.18476888612E+03  0.59999681911E+02 0.  0.
    9000007    2    3    3    0    0  0.13644181081E+02  0.10979347565E+02 -0.17173594937E+03  0.18275504059E+03  0.59995489881E+02 0.  0.
          5    1    4    4  501    0 -0.34005385663E+02 -0.98594862803E+01 -0.67633336981E+02  0.76484861214E+02  0.47000000000E+01 0. -1.
         -5    1    4    4    0  501  0.20361204582E+02 -0.11198612847E+01 -0.10624268120E+03  0.10828402490E+03  0.47000000000E+01 0. -1.
         12    1    5    5    0    0 -0.28609481171E+01  0.95655861451E+01  0.23602656256E+00  0.99870501634E+01  0.00000000000E+00 0. -1.
        -12    1    5    5    0    0  0.16505129198E+02  0.14137614200E+01 -0.17197197593E+03  0.17276799043E+03  0.00000000000E+00 0. -1.
<mgrwt>
<rscale>  0 0.12500482E+03</rscale>
<asrwt>0</asrwt>
<pdfrwt beam="1">  1       21 0.16855354E-02 0.12500482E+03</pdfrwt>
<pdfrwt beam="2">  1       21 0.54856606E-01 0.12500482E+03</pdfrwt>
<totfact> 0.50263650E+06</totfact>
</mgrwt>
</event>
<event>
 9    1  0.4458519E-002  0.1249968E+03  0.7818608E-02  0.1235074E+00
         21   -1    0    0  503  502  0.00000000000E+00  0.00000000000E+00  0.11535090795E+03  0.11535090795E+03  0.00000000000E+00 0. -1.
         21   -1    0    0  502  503 -0.00000000000E+00 -0.00000000000E+00 -0.33862304419E+02  0.33862304419E+02  0.00000000000E+00 0. -1.
         25    2    1    2    0    0  0.00000000000E+00  0.00000000000E+00  0.81488603532E+02  0.14921321237E+03  0.12499676092E+03 0.  0.
    9000006    2    3    3    0    0  0.51601498669E+00 -0.17125107791E+02  0.44859179141E+02  0.76853653118E+02  0.60005020257E+02 0.  0.
    9000007    2    3    3    0    0 -0.51601498669E+00  0.17125107791E+02  0.36629424391E+02  0.72359559252E+02  0.60005462214E+02 0.  0.
          5    1    4    4  501    0  0.15921135078E+02  0.76475263421E+01  0.43603127823E+02  0.47278853172E+02  0.47000000000E+01 0. -1.
         -5    1    4    4    0  501 -0.15405120091E+02 -0.24772634133E+02  0.12560513175E+01  0.29574799946E+02  0.47000000000E+01 0. -1.
         12    1    5    5    0    0  0.27924815798E+02  0.56135471575E+01  0.29198303366E+02  0.40790295028E+02  0.00000000000E+00 0.  1.
        -12    1    5    5    0    0 -0.28440830784E+02  0.11511560634E+02  0.74311210251E+01  0.31569264223E+02  0.00000000000E+00 0.  1.
<mgrwt>
<rscale>  0 0.12499676E+03</rscale>
<asrwt>0</asrwt>
<pdfrwt beam="1">  1       21 0.17746293E-01 0.12499676E+03</pdfrwt>
<pdfrwt beam="2">  1       21 0.52095854E-02 0.12499676E+03</pdfrwt>
<totfact> 0.70864019E+06</totfact>
</mgrwt>
</event>
<event>
 9    1  0.4458519E-002  0.1249999E+03  0.7818608E-02  0.1235069E+00
         21   -1    0    0  503  502  0.00000000000E+00  0.00000000000E+00  0.67039230740E+02  0.67039230740E+02  0.00000000000E+00 0. -1.
         21   -1    0    0  502  503 -0.00000000000E+00 -0.00000000000E+00 -0.58268037643E+02  0.58268037643E+02  0.00000000000E+00 0. -1.
         25    2    1    2    0    0  0.26645352591E-14  0.71054273576E-14  0.87711930974E+01  0.12530726838E+03  0.12499991072E+03 0.  0.
    9000006    2    3    3    0    0 -0.43769310956E+01 -0.16206589076E+02  0.93338221874E+01  0.62999536769E+02  0.60000086177E+02 0.  0.
    9000007    2    3    3    0    0  0.43769310956E+01  0.16206589076E+02 -0.56262909005E+00  0.62307731614E+02  0.60001048424E+02 0.  0.
          5    1    4    4  501    0  0.14784679630E+02 -0.50994427946E+01  0.28821580131E+02  0.33126493171E+02  0.47000000000E+01 0. -1.
         -5    1    4    4    0  501 -0.19161610726E+02 -0.11107146281E+02 -0.19487757944E+02  0.29873043598E+02  0.47000000000E+01 0. -1.
         12    1    5    5    0    0  0.11484635632E+02  0.37834351392E+02 -0.24876838011E+00  0.39539813942E+02  0.00000000000E+00 0. -1.
        -12    1    5    5    0    0 -0.71077045360E+01 -0.21627762316E+02 -0.31386070994E+00  0.22767917672E+02  0.00000000000E+00 0. -1.
<mgrwt>
<rscale>  0 0.12499991E+03</rscale>
<asrwt>0</asrwt>
<pdfrwt beam="1">  1       21 0.10313728E-01 0.12499991E+03</pdfrwt>
<pdfrwt beam="2">  1       21 0.89643135E-02 0.12499991E+03</pdfrwt>
<totfact> 0.74002259E+06</totfact>
</mgrwt>
</event>
<event>
 9    1  0.4458519E-002  0.1249980E+03  0.7818608E-02  0.1235072E+00
         21   -1    0    0  503  502  0.00000000000E+00  0.00000000000E+00  0.90078132951E+03  0.90078132951E+03  0.00000000000E+00 0.  1.
         21   -1    0    0  502  503 -0.00000000000E+00 -0.00000000000E+00 -0.43363763060E+01  0.43363763060E+01  0.00000000000E+00 0.  1.
         25    2    1    2    0    0 -0.17763568394E-14  0.00000000000E+00  0.89644495320E+03  0.90511770581E+03  0.12499802901E+03 0.  0.
    9000006    2    3    3    0    0 -0.78547889645E+01  0.59008688784E+01  0.55306121395E+03  0.55639304150E+03  0.59999935792E+02 0.  0.
    9000007    2    3    3    0    0  0.78547889645E+01 -0.59008688784E+01  0.34338373926E+03  0.34872466431E+03  0.59999842934E+02 0.  0.
          5    1    4    4  501    0 -0.19946971791E+02  0.25936246132E+02  0.21904916873E+03  0.22152922802E+03  0.47000000000E+01 0.  1.
         -5    1    4    4    0  501  0.12092182826E+02 -0.20035377254E+02  0.33401204522E+03  0.33486381348E+03  0.47000000000E+01 0.  1.
         12    1    5    5    0    0 -0.19267272384E+02  0.13646712218E+02  0.86127046706E+02  0.89304695922E+02  0.00000000000E+00 0. -1.
        -12    1    5    5    0    0  0.27122061348E+02 -0.19547581097E+02  0.25725669255E+03  0.25941996839E+03  0.00000000000E+00 0. -1.
<mgrwt>
<rscale>  0 0.12499803E+03</rscale>
<asrwt>0</asrwt>
<pdfrwt beam="1">  1       21 0.13858159E+00 0.12499803E+03</pdfrwt>
<pdfrwt beam="2">  1       21 0.66713553E-03 0.12499803E+03</pdfrwt>
<totfact> 0.26153801E+06</totfact>
</mgrwt>
</event>
<event>
 9    1  0.4458519E-002  0.1249890E+03  0.7818608E-02  0.1235086E+00
         21   -1    0    0  503  502  0.00000000000E+00  0.00000000000E+00  0.24337459765E+02  0.24337459765E+02  0.00000000000E+00 0. -1.
         21   -1    0    0  502  503 -0.00000000000E+00 -0.00000000000E+00 -0.16047534674E+03  0.16047534674E+03  0.00000000000E+00 0. -1.
         25    2    1    2    0    0  0.17763568394E-14 -0.17763568394E-14 -0.13613788697E+03  0.18481280650E+03  0.12498899623E+03 0.  0.
    9000006    2    3    3    0    0  0.91087583548E+01  0.14101317453E+02 -0.75273132924E+02  0.97713288142E+02  0.60000212554E+02 0.  0.
    9000007    2    3    3    0    0 -0.91087583548E+01 -0.14101317453E+02 -0.60864754046E+02  0.87099518359E+02  0.59999926505E+02 0.  0.
          5    1    4    4  501    0 -0.23524401442E+01  0.43021996709E+01 -0.80720412712E+02  0.81005666006E+02  0.47000000000E+01 0.  1.
         -5    1    4    4    0  501  0.11461198499E+02  0.97991177826E+01  0.54472797878E+01  0.16707622136E+02  0.47000000000E+01 0.  1.
         12    1    5    5    0    0  0.19140693983E+02 -0.23249595842E+02 -0.42831235109E+02  0.52358615088E+02  0.00000000000E+00 0.  1.
        -12    1    5    5    0    0 -0.28249452338E+02  0.91482783886E+01 -0.18033518937E+02  0.34740903271E+02  0.00000000000E+00 0.  1.
<mgrwt>
<rscale>  0 0.12498900E+03</rscale>
<asrwt>0</asrwt>
<pdfrwt beam="1">  1       21 0.37442247E-02 0.12498900E+03</pdfrwt>
<pdfrwt beam="2">  1       21 0.24688514E-01 0.12498900E+03</pdfrwt>
<totfact> 0.66622254E+06</totfact>
</mgrwt>
</event>
<event>
 9    1  0.4458519E-002  0.1250007E+03  0.7818608E-02  0.1235068E+00
         21   -1    0    0  503  502  0.00000000000E+00  0.00000000000E+00  0.33735308309E+02  0.33735308309E+02  0.00000000000E+00 0.  1.
         21   -1    0    0  502  503 -0.00000000000E+00 -0.00000000000E+00 -0.11579252469E+03  0.11579252469E+03  0.00000000000E+00 0.  1.
         25    2    1    2    0    0 -0.88817841970E-15  0.00000000000E+00 -0.82057216377E+02  0.14952783299E+03  0.12500074432E+03 0.  0.
    9000006    2    3    3    0    0  0.55228736941E+01 -0.62436289486E+01 -0.59437599679E+02  0.84865871630E+02  0.59999190625E+02 0.  0.
    9000007    2    3    3    0    0 -0.55228736941E+01  0.62436289486E+01 -0.22619616698E+02  0.64661961364E+02  0.60000309596E+02 0.  0.
          5    1    4    4  501    0  0.26711379549E+02 -0.15427831392E+02 -0.15122727460E+02  0.34674236324E+02  0.47000000000E+01 0.  1.
         -5    1    4    4    0  501 -0.21188505855E+02  0.91842024430E+01 -0.44314872219E+02  0.50191635306E+02  0.47000000000E+01 0.  1.
         12    1    5    5    0    0 -0.89101786168E+00 -0.12324280020E+02 -0.38096236465E+02  0.40050031506E+02  0.00000000000E+00 0.  1.
        -12    1    5    5    0    0 -0.46318558324E+01  0.18567908969E+02  0.15476619766E+02  0.24611929858E+02  0.00000000000E+00 0.  1.
<mgrwt>
<rscale>  0 0.12500074E+03</rscale>
<asrwt>0</asrwt>
<pdfrwt beam="1">  1       21 0.51900474E-02 0.12500074E+03</pdfrwt>
<pdfrwt beam="2">  1       21 0.17814235E-01 0.12500074E+03</pdfrwt>
<totfact> 0.70817222E+06</totfact>
</mgrwt>
</event>
<event>
 9    1  0.4458519E-002  0.1249994E+03  0.7818608E-02  0.1235070E+00
         21   -1    0    0  503  502  0.00000000000E+00  0.00000000000E+00  0.52402435610E+01  0.52402435610E+01  0.00000000000E+00 0.  1.
         21   -1    0    0  502  503 -0.00000000000E+00 -0.00000000000E+00 -0.74542627983E+03  0.74542627983E+03  0.00000000000E+00 0.  1.
         25    2    1    2    0    0 -0.17763568394E-14  0.17763568394E-14 -0.74018603626E+03  0.75066652339E+03  0.12499944421E+03 0.  0.
    9000006    2    3    3    0    0 -0.13691958666E+02  0.89968504562E+01 -0.33320956699E+03  0.33896461085E+03  0.59999823564E+02 0.  0.
    9000007    2    3    3    0    0  0.13691958666E+02 -0.89968504562E+01 -0.40697646928E+03  0.41170191254E+03  0.60001709886E+02 0.  0.
          5    1    4    4  501    0 -0.36420229674E+02  0.88981165927E+01 -0.23713084854E+03  0.24012234161E+03  0.47000000000E+01 0.  1.
         -5    1    4    4    0  501  0.22728271008E+02  0.98733863444E-01 -0.96078718442E+02  0.98842269242E+02  0.47000000000E+01 0.  1.
         12    1    5    5    0    0 -0.72985299009E+01 -0.11494373064E+01 -0.46032509384E+01  0.87051515804E+01  0.00000000000E+00 0. -1.
        -12    1    5    5    0    0  0.20990488567E+02 -0.78474131498E+01 -0.40237321834E+03  0.40299676096E+03  0.00000000000E+00 0. -1.
<mgrwt>
<rscale>  0 0.12499944E+03</rscale>
<asrwt>0</asrwt>
<pdfrwt beam="1">  1       21 0.80619144E-03 0.12499944E+03</pdfrwt>
<pdfrwt beam="2">  1       21 0.11468095E+00 0.12499944E+03</pdfrwt>
<totfact> 0.31045861E+06</totfact>
</mgrwt>
</event>
<event>
 9    1  0.4458519E-002  0.1250050E+03  0.7818608E-02  0.1235061E+00
         21   -1    0    0  503  502  0.00000000000E+00  0.00000000000E+00  0.22281807679E+03  0.22281807679E+03  0.00000000000E+00 0.  1.
         21   -1    0    0  502  503 -0.00000000000E+00 -0.00000000000E+00 -0.17532527816E+02  0.17532527816E+02  0.00000000000E+00 0.  1.
         25    2    1    2    0    0  0.00000000000E+00  0.00000000000E+00  0.20528554898E+03  0.24035060461E+03  0.12500502597E+03 0.  0.
    9000006    2    3    3    0    0  0.10414570657E+02  0.82341921665E+01  0.80701137836E+02  0.10143468459E+03  0.60000469894E+02 0.  0.
    9000007    2    3    3    0    0 -0.10414570657E+02 -0.82341921665E+01  0.12458441114E+03  0.13891592002E+03  0.60000767768E+02 0.  0.
          5    1    4    4  501    0 -0.14821132814E+02  0.25014447089E+02  0.50067103404E+02  0.58087807536E+02  0.47000000000E+01 0.  1.
         -5    1    4    4    0  501  0.25235703470E+02 -0.16780254922E+02  0.30634034432E+02  0.43346877055E+02  0.47000000000E+01 0.  1.
         12    1    5    5    0    0  0.11836467072E+02  0.19793937964E+02  0.30375092708E+02  0.38138539431E+02  0.00000000000E+00 0. -1.
        -12    1    5    5    0    0 -0.22251037728E+02 -0.28028130131E+02  0.94209318434E+02  0.10077738059E+03  0.00000000000E+00 0. -1.
<mgrwt>
<rscale>  0 0.12500503E+03</rscale>
<asrwt>0</asrwt>
<pdfrwt beam="1">  1       21 0.34279702E-01 0.12500503E+03</pdfrwt>
<pdfrwt beam="2">  1       21 0.26973121E-02 0.12500503E+03</pdfrwt>
<totfact> 0.60791045E+06</totfact>
</mgrwt>
</event>
<event>
 9    1  0.4458519E-002  0.1250034E+03  0.7818608E-02  0.1235064E+00
         21   -1    0    0  503  502  0.00000000000E+00  0.00000000000E+00  0.52669110608E+03  0.52669110608E+03  0.00000000000E+00 0.  1.
         21   -1    0    0  502  503 -0.00000000000E+00 -0.00000000000E+00 -0.74169852234E+01  0.74169852234E+01  0.00000000000E+00 0.  1.
         25    2    1    2    0    0  0.35527136788E-14 -0.17763568394E-14  0.51927412086E+03  0.53410809130E+03  0.12500336237E+03 0.  0.
    9000006    2    3    3    0    0  0.13685413786E+02  0.72994173821E+00  0.30615695093E+03  0.31228238935E+03  0.60003239347E+02 0.  0.
    9000007    2    3    3    0    0 -0.13685413786E+02 -0.72994173821E+00  0.21311716993E+03  0.22182570195E+03  0.59999088015E+02 0.  0.
          5    1    4    4  501    0  0.32036202967E+02 -0.11054614166E+02  0.24089409158E+03  0.24331168519E+03  0.47000000000E+01 0.  1.
         -5    1    4    4    0  501 -0.18350789181E+02  0.11784555904E+02  0.65262859350E+02  0.68970704157E+02  0.47000000000E+01 0.  1.
         12    1    5    5    0    0  0.20476196242E+02 -0.13864613432E+02  0.76963422130E+02  0.80838545658E+02  0.00000000000E+00 0. -1.
        -12    1    5    5    0    0 -0.34161610028E+02  0.13134671693E+02  0.13615374780E+03  0.14098715630E+03  0.00000000000E+00 0. -1.
<mgrwt>
<rscale>  0 0.12500336E+03</rscale>
<asrwt>0</asrwt>
<pdfrwt beam="1">  1       21 0.81029371E-01 0.12500336E+03</pdfrwt>
<pdfrwt beam="2">  1       21 0.11410751E-02 0.12500336E+03</pdfrwt>
<totfact> 0.40249374E+06</totfact>
</mgrwt>
</event>
<event>
 8    1  0.4458519E-002  0.1248179E+03  0.7818608E-02  0.1235354E+00
         21   -1    0    0  503  502  0.00000000000E+00  0.00000000000E+00  0.35692832413E+03  0.35692832413E+03  0.00000000000E+00 0. -1.
         21   -1    0    0  502  503 -0.00000000000E+00 -0.00000000000E+00 -0.10912213275E+02  0.10912213275E+02  0.00000000000E+00 0. -1.
    9000006    2    1    2    0    0 -0.30248284811E+01 -0.93480825959E+01  0.21450919803E+03  0.22295900049E+03  0.59999863533E+02 0.  0.
    9000007    2    1    2    0    0  0.30248284811E+01  0.93480825959E+01  0.13150691282E+03  0.14488153691E+03  0.60000461520E+02 0.  0.
          5    1    3    3  501    0 -0.98846325581E+01 -0.32977512314E+02  0.14398285214E+03  0.14811608282E+03  0.47000000000E+01 0.  1.
         -5    1    3    3    0  501  0.68598040770E+01  0.23629429718E+02  0.70526345894E+02  0.74842917674E+02  0.47000000000E+01 0.  1.
         12    1    4    4    0    0 -0.11276963630E+01  0.34890282606E+02  0.74005562614E+02  0.81825587790E+02  0.00000000000E+00 0. -1.
        -12    1    4    4    0    0  0.41525248441E+01 -0.25542200010E+02  0.57501350208E+02  0.63055949122E+02  0.00000000000E+00 0. -1.
<mgrwt>
<rscale>  0 0.12481792E+03</rscale>
<asrwt>0</asrwt>
<pdfrwt beam="1">  1       21 0.54912041E-01 0.12481792E+03</pdfrwt>
<pdfrwt beam="2">  1       21 0.16788023E-02 0.12481792E+03</pdfrwt>
<totfact> 0.50476926E+06</totfact>
</mgrwt>
</event>
<event>
 9    1  0.4458519E-002  0.1249992E+03  0.7818608E-02  0.1235071E+00
         21   -1    0    0  503  502  0.00000000000E+00  0.00000000000E+00  0.56031308836E+01  0.56031308836E+01  0.00000000000E+00 0. -1.
         21   -1    0    0  502  503 -0.00000000000E+00 -0.00000000000E+00 -0.69714589337E+03  0.69714589337E+03  0.00000000000E+00 0. -1.
         25    2    1    2    0    0 -0.17763568394E-14  0.00000000000E+00 -0.69154276249E+03  0.70274902426E+03  0.12499919497E+03 0.  0.
    9000006    2    3    3    0    0  0.43520667092E+00  0.76635522912E+01 -0.25735938163E+03  0.26437233370E+03  0.59999667246E+02 0.  0.
    9000007    2    3    3    0    0 -0.43520667092E+00 -0.76635522912E+01 -0.43418338085E+03  0.43837669056E+03  0.59999959820E+02 0.  0.
          5    1    4    4  501    0 -0.41656674246E+01 -0.25872258030E+01 -0.67878320827E-01  0.67927262505E+01  0.47000000000E+01 0. -1.
         -5    1    4    4    0  501  0.46008740955E+01  0.10250778094E+02 -0.25729150331E+03  0.25757960744E+03  0.47000000000E+01 0. -1.
         12    1    5    5    0    0 -0.30092810198E+02 -0.53016505734E+01 -0.20301954580E+03  0.20530616333E+03  0.00000000000E+00 0. -1.
        -12    1    5    5    0    0  0.29657603527E+02 -0.23619017178E+01 -0.23116383505E+03  0.23307052723E+03  0.00000000000E+00 0. -1.
<mgrwt>
<rscale>  0 0.12499919E+03</rscale>
<asrwt>0</asrwt>
<pdfrwt beam="1">  1       21 0.86201975E-03 0.12499919E+03</pdfrwt>
<pdfrwt beam="2">  1       21 0.10725326E+00 0.12499919E+03</pdfrwt>
<totfact> 0.32805067E+06</totfact>
</mgrwt>
</event>
<event>
 9    1  0.4458519E-002  0.1250596E+03  0.7818608E-02  0.1234976E+00
         21   -1    0    0  503  502  0.00000000000E+00  0.00000000000E+00  0.58052410891E+03  0.58052410891E+03  0.00000000000E+00 0. -1.
         21   -1    0    0  502  503 -0.00000000000E+00 -0.00000000000E+00 -0.67352548896E+01  0.67352548896E+01  0.00000000000E+00 0. -1.
         25    2    1    2    0    0  0.00000000000E+00  0.35527136788E-14  0.57378885402E+03  0.58725936380E+03  0.12505963127E+03 0.  0.
    9000006    2    3    3    0    0 -0.15034898354E+02  0.11638433514E+01  0.32956722722E+03  0.33532370717E+03  0.60000238606E+02 0.  0.
    9000007    2    3    3    0    0  0.15034898354E+02 -0.11638433514E+01  0.24422162680E+03  0.25193565663E+03  0.59999744871E+02 0.  0.
          5    1    4    4  501    0 -0.60871423621E+01  0.25120461484E+02  0.25506849524E+03  0.25641785849E+03  0.47000000000E+01 0.  1.
         -5    1    4    4    0  501 -0.89477559923E+01 -0.23956618133E+02  0.74498731979E+02  0.78905848682E+02  0.47000000000E+01 0.  1.
         12    1    5    5    0    0  0.18514253586E+02  0.26952070103E+02  0.15121385320E+03  0.15470882673E+03  0.00000000000E+00 0.  1.
        -12    1    5    5    0    0 -0.34793552317E+01 -0.28115913455E+02  0.93007773602E+02  0.97226829902E+02  0.00000000000E+00 0.  1.
<mgrwt>
<rscale>  0 0.12505963E+03</rscale>
<asrwt>0</asrwt>
<pdfrwt beam="1">  1       21 0.89311362E-01 0.12505963E+03</pdfrwt>
<pdfrwt beam="2">  1       21 0.10361935E-02 0.12505963E+03</pdfrwt>
<totfact> 0.37619468E+06</totfact>
</mgrwt>
</event>
<event>
 9    1  0.4458519E-002  0.1249965E+03  0.7818608E-02  0.1235075E+00
         21   -1    0    0  503  502  0.00000000000E+00  0.00000000000E+00  0.75331181918E+02  0.75331181918E+02  0.00000000000E+00 0. -1.
         21   -1    0    0  502  503 -0.00000000000E+00 -0.00000000000E+00 -0.51851470377E+02  0.51851470377E+02  0.00000000000E+00 0. -1.
         25    2    1    2    0    0  0.88817841970E-15  0.00000000000E+00  0.23479711541E+02  0.12718265230E+03  0.12499652071E+03 0.  0.
    9000006    2    3    3    0    0  0.68516686160E+01 -0.20923120591E+01  0.27977249435E+02  0.66589078022E+02  0.60000464108E+02 0.  0.
    9000007    2    3    3    0    0 -0.68516686160E+01  0.20923120591E+01 -0.44975378945E+01  0.60593574274E+02  0.60000252196E+02 0.  0.
          5    1    4    4  501    0  0.67992548040E+01  0.27464532780E+02  0.56070059174E+01  0.29224286853E+02  0.47000000000E+01 0.  1.
         -5    1    4    4    0  501  0.52413812055E-01 -0.29556844839E+02  0.22370243518E+02  0.37364791169E+02  0.47000000000E+01 0.  1.
         12    1    5    5    0    0  0.18843658910E+02  0.19645283709E+02  0.57671510180E+01  0.27825899518E+02  0.00000000000E+00 0.  1.
        -12    1    5    5    0    0 -0.25695327526E+02 -0.17552971649E+02 -0.10264688912E+02  0.32767674756E+02  0.00000000000E+00 0.  1.
<mgrwt>
<rscale>  0 0.12499652E+03</rscale>
<asrwt>0</asrwt>
<pdfrwt beam="1">  1       21 0.11589413E-01 0.12499652E+03</pdfrwt>
<pdfrwt beam="2">  1       21 0.79771493E-02 0.12499652E+03</pdfrwt>
<totfact> 0.73750842E+06</totfact>
</mgrwt>
</event>
<event>
 9    1  0.4458519E-002  0.1250005E+03  0.7818608E-02  0.1235069E+00
         21   -1    0    0  503  502  0.00000000000E+00  0.00000000000E+00  0.66882280400E+02  0.66882280400E+02  0.00000000000E+00 0.  1.
         21   -1    0    0  502  503 -0.00000000000E+00 -0.00000000000E+00 -0.58405322214E+02  0.58405322214E+02  0.00000000000E+00 0.  1.
         25    2    1    2    0    0  0.88817841970E-15  0.00000000000E+00  0.84769581862E+01  0.12528760261E+03  0.12500049819E+03 0.  0.
    9000006    2    3    3    0    0 -0.39278928745E+01  0.16978343987E+02  0.58877151926E+01  0.62754542480E+02  0.59998124176E+02 0.  0.
    9000007    2    3    3    0    0  0.39278928745E+01 -0.16978343987E+02  0.25892429936E+01  0.62533060135E+02  0.59999891030E+02 0.  0.
          5    1    4    4  501    0 -0.11656890693E+02  0.20082404730E+02  0.29173402703E+02  0.37581425008E+02  0.47000000000E+01 0. -1.
         -5    1    4    4    0  501  0.77289978183E+01 -0.31040607431E+01 -0.23285687511E+02  0.25173117471E+02  0.47000000000E+01 0. -1.
         12    1    5    5    0    0 -0.42174617036E+01 -0.37083370574E+02  0.11541209318E+02  0.39066134552E+02  0.00000000000E+00 0.  1.
        -12    1    5    5    0    0  0.81453545781E+01  0.20105026586E+02 -0.89519663240E+01  0.23466925583E+02  0.00000000000E+00 0.  1.
<mgrwt>
<rscale>  0 0.12500050E+03</rscale>
<asrwt>0</asrwt>
<pdfrwt beam="1">  1       21 0.10289582E-01 0.12500050E+03</pdfrwt>
<pdfrwt beam="2">  1       21 0.89854342E-02 0.12500050E+03</pdfrwt>
<totfact> 0.74003803E+06</totfact>
</mgrwt>
</event>
<event>
 9    1  0.4458519E-002  0.1249955E+03  0.7818608E-02  0.1235076E+00
         21   -1    0    0  503  502  0.00000000000E+00  0.00000000000E+00  0.37482874964E+03  0.37482874964E+03  0.00000000000E+00 0.  1.
         21   -1    0    0  502  503 -0.00000000000E+00 -0.00000000000E+00 -0.10420667464E+02  0.10420667464E+02  0.00000000000E+00 0.  1.
         25    2    1    2    0    0  0.35527136788E-14 -0.17763568394E-14  0.36440808218E+03  0.38524941711E+03  0.12499545201E+03 0.  0.
    9000006    2    3    3    0    0 -0.64458123497E+01 -0.14184330877E+02  0.20672003742E+03  0.21581457532E+03  0.60000110912E+02 0.  0.
    9000007    2    3    3    0    0  0.64458123497E+01  0.14184330877E+02  0.15768804476E+03  0.16943484179E+03  0.59999186768E+02 0.  0.
          5    1    4    4  501    0  0.16476306417E+02 -0.27507957182E+02  0.14323286476E+03  0.14685332795E+03  0.47000000000E+01 0.  1.
         -5    1    4    4    0  501 -0.22922118767E+02  0.13323626305E+02  0.63487172657E+02  0.68961247369E+02  0.47000000000E+01 0.  1.
         12    1    5    5    0    0 -0.16906022514E+02  0.15480033835E+02  0.13471570373E+03  0.13665198819E+03  0.00000000000E+00 0. -1.
        -12    1    5    5    0    0  0.23351834864E+02 -0.12957029586E+01  0.22972341026E+02  0.32782853596E+02  0.00000000000E+00 0. -1.
<mgrwt>
<rscale>  0 0.12499545E+03</rscale>
<asrwt>0</asrwt>
<pdfrwt beam="1">  1       21 0.57665951E-01 0.12499545E+03</pdfrwt>
<pdfrwt beam="2">  1       21 0.16031799E-02 0.12499545E+03</pdfrwt>
<totfact> 0.49040962E+06</totfact>
</mgrwt>
</event>
<event>
 9    1  0.4458519E-002  0.1250005E+03  0.7818608E-02  0.1235069E+00
         21   -1    0    0  503  502  0.00000000000E+00  0.00000000000E+00  0.36974733553E+02  0.36974733553E+02  0.00000000000E+00 0.  1.
         21   -1    0    0  502  503 -0.00000000000E+00 -0.00000000000E+00 -0.10564729997E+03  0.10564729997E+03  0.00000000000E+00 0.  1.
         25    2    1    2    0    0  0.17763568394E-14  0.00000000000E+00 -0.68672566416E+02  0.14262203352E+03  0.12500049227E+03 0.  0.
    9000006    2    3    3    0    0  0.17496688862E+00  0.95882052573E+01 -0.17629899026E+02  0.63266721270E+02  0.59999169887E+02 0.  0.
    9000007    2    3    3    0    0 -0.17496688862E+00 -0.95882052573E+01 -0.51042667390E+02  0.79355312253E+02  0.59999561623E+02 0.  0.
          5    1    4    4  501    0 -0.71966097154E+01  0.33594024915E+02 -0.59813723032E+01  0.35188300840E+02  0.47000000000E+01 0. -1.
         -5    1    4    4    0  501  0.73715766041E+01 -0.24005819657E+02 -0.11648526723E+02  0.28078420430E+02  0.47000000000E+01 0. -1.
         12    1    5    5    0    0 -0.16178895050E+02 -0.27821522289E+02 -0.43175660829E+02  0.53851011462E+02  0.00000000000E+00 0. -1.
        -12    1    5    5    0    0  0.16003928161E+02  0.18233317032E+02 -0.78670065614E+01  0.25504300790E+02  0.00000000000E+00 0. -1.
<mgrwt>
<rscale>  0 0.12500049E+03</rscale>
<asrwt>0</asrwt>
<pdfrwt beam="1">  1       21 0.56884206E-02 0.12500049E+03</pdfrwt>
<pdfrwt beam="2">  1       21 0.16253431E-01 0.12500049E+03</pdfrwt>
<totfact> 0.71697930E+06</totfact>
</mgrwt>
</event>
<event>
 9    1  0.4458519E-002  0.1249963E+03  0.7818608E-02  0.1235075E+00
         21   -1    0    0  503  502  0.00000000000E+00  0.00000000000E+00  0.35667276482E+02  0.35667276482E+02  0.00000000000E+00 0.  1.
         21   -1    0    0  502  503 -0.00000000000E+00 -0.00000000000E+00 -0.10951268410E+03  0.10951268410E+03  0.00000000000E+00 0.  1.
         25    2    1    2    0    0  0.00000000000E+00  0.00000000000E+00 -0.73845407620E+02  0.14517996058E+03  0.12499630686E+03 0.  0.
    9000006    2    3    3    0    0 -0.14245168750E+02 -0.78596716632E+01 -0.44401833176E+02  0.76394229220E+02  0.59998801633E+02 0.  0.
    9000007    2    3    3    0    0  0.14245168750E+02  0.78596716632E+01 -0.29443574444E+02  0.68785731364E+02  0.59998779086E+02 0.  0.
          5    1    4    4  501    0 -0.20494929426E+02  0.19621075087E+02 -0.37030749744E+02  0.46887046680E+02  0.47000000000E+01 0. -1.
         -5    1    4    4    0  501  0.62497606760E+01 -0.27480746751E+02 -0.73710834314E+01  0.29507182540E+02  0.47000000000E+01 0. -1.
         12    1    5    5    0    0  0.15070823990E+02  0.30837374138E+02 -0.41008818392E+01  0.34567189810E+02  0.00000000000E+00 0. -1.
        -12    1    5    5    0    0 -0.82565524036E+00 -0.22977702475E+02 -0.25342692605E+02  0.34218541554E+02  0.00000000000E+00 0. -1.
<mgrwt>
<rscale>  0 0.12499631E+03</rscale>
<asrwt>0</asrwt>
<pdfrwt beam="1">  1       21 0.54872733E-02 0.12499631E+03</pdfrwt>
<pdfrwt beam="2">  1       21 0.16848105E-01 0.12499631E+03</pdfrwt>
<totfact> 0.71376789E+06</totfact>
</mgrwt>
</event>
<event>
 9    1  0.4458519E-002  0.1250017E+03  0.7818608E-02  0.1235067E+00
         21   -1    0    0  503  502  0.00000000000E+00  0.00000000000E+00  0.77035743739E+01  0.77035743739E+01  0.00000000000E+00 0.  1.
         21   -1    0    0  502  503 -0.00000000000E+00 -0.00000000000E+00 -0.50708338733E+03  0.50708338733E+03  0.00000000000E+00 0.  1.
         25    2    1    2    0    0  0.00000000000E+00  0.00000000000E+00 -0.49937981295E+03  0.51478696170E+03  0.12500167340E+03 0.  0.
    9000006    2    3    3    0    0  0.15673641912E+02 -0.25050406056E+01 -0.28006022552E+03  0.28685480927E+03  0.60000111695E+02 0.  0.
    9000007    2    3    3    0    0 -0.15673641912E+02  0.25050406056E+01 -0.21931958743E+03  0.22793215243E+03  0.60000386674E+02 0.  0.
          5    1    4    4  501    0  0.26450814802E+02  0.21925306527E+02 -0.17041471307E+03  0.17390695529E+03  0.47000000000E+01 0. -1.
         -5    1    4    4    0  501 -0.10777172890E+02 -0.24430347132E+02 -0.10964551245E+03  0.11294785398E+03  0.47000000000E+01 0. -1.
         12    1    5    5    0    0 -0.15609995049E+02  0.29536097550E+02 -0.14640827135E+03  0.15017135187E+03  0.00000000000E+00 0. -1.
        -12    1    5    5    0    0 -0.63646863294E-01 -0.27031056944E+02 -0.72911316087E+02  0.77760800561E+02  0.00000000000E+00 0. -1.
<mgrwt>
<rscale>  0 0.12500167E+03</rscale>
<asrwt>0</asrwt>
<pdfrwt beam="1">  1       21 0.11851653E-02 0.12500167E+03</pdfrwt>
<pdfrwt beam="2">  1       21 0.78012826E-01 0.12500167E+03</pdfrwt>
<totfact> 0.41251612E+06</totfact>
</mgrwt>
</event>
<event>
 9    1  0.4458519E-002  0.1249947E+03  0.7818608E-02  0.1235078E+00
         21   -1    0    0  503  502  0.00000000000E+00  0.00000000000E+00  0.14935044282E+03  0.14935044282E+03  0.00000000000E+00 0. -1.
         21   -1    0    0  502  503 -0.00000000000E+00 -0.00000000000E+00 -0.26152714713E+02  0.26152714713E+02  0.00000000000E+00 0. -1.
         25    2    1    2    0    0  0.00000000000E+00  0.35527136788E-14  0.12319772811E+03  0.17550315754E+03  0.12499471226E+03 0.  0.
    9000006    2    3    3    0    0 -0.81714091871E+01 -0.14279568597E+02  0.69941477570E+02  0.93608360411E+02  0.60000307056E+02 0.  0.
    9000007    2    3    3    0    0  0.81714091871E+01  0.14279568597E+02  0.53256250540E+02  0.81894797124E+02  0.59998763045E+02 0.  0.
          5    1    4    4  501    0  0.16428702439E+02 -0.58078892138E+01 -0.82249501711E+00  0.18066553047E+02  0.47000000000E+01 0. -1.
         -5    1    4    4    0  501 -0.24600111626E+02 -0.84716793836E+01  0.70763972587E+02  0.75541807364E+02  0.47000000000E+01 0. -1.
         12    1    5    5    0    0 -0.10550739593E+02 -0.14643553431E+02 -0.48786527798E+00  0.18055186944E+02  0.00000000000E+00 0.  1.
        -12    1    5    5    0    0  0.18722148780E+02  0.28923122029E+02  0.53744115818E+02  0.63839610180E+02  0.00000000000E+00 0.  1.
<mgrwt>
<rscale>  0 0.12499471E+03</rscale>
<asrwt>0</asrwt>
<pdfrwt beam="1">  1       21 0.22976991E-01 0.12499471E+03</pdfrwt>
<pdfrwt beam="2">  1       21 0.40234947E-02 0.12499471E+03</pdfrwt>
<totfact> 0.67680262E+06</totfact>
</mgrwt>
</event>
<event>
 9    1  0.4458519E-002  0.1250024E+03  0.7818608E-02  0.1235066E+00
         21   -1    0    0  503  502  0.00000000000E+00  0.00000000000E+00  0.24144574311E+03  0.24144574311E+03  0.00000000000E+00 0. -1.
         21   -1    0    0  502  503 -0.00000000000E+00 -0.00000000000E+00 -0.16179192703E+02  0.16179192703E+02  0.00000000000E+00 0. -1.
         25    2    1    2    0    0 -0.17763568394E-14  0.00000000000E+00  0.22526655041E+03  0.25762493581E+03  0.12500235526E+03 0.  0.
    9000006    2    3    3    0    0 -0.12566699182E+02  0.68892049216E+00  0.13769555327E+03  0.15072657624E+03  0.60000323776E+02 0.  0.
    9000007    2    3    3    0    0  0.12566699182E+02 -0.68892049216E+00  0.87570997138E+02  0.10689835958E+03  0.60001526658E+02 0.  0.
          5    1    4    4  501    0  0.94868610674E+01 -0.24931400841E+02  0.56895992101E+02  0.63014436425E+02  0.47000000000E+01 0.  1.
         -5    1    4    4    0  501 -0.22053560250E+02  0.25620321333E+02  0.80799561170E+02  0.87712139810E+02  0.47000000000E+01 0.  1.
         12    1    5    5    0    0 -0.86324315729E+01  0.16050473468E+02  0.34516095128E+01  0.18548589748E+02  0.00000000000E+00 0. -1.
        -12    1    5    5    0    0  0.21199130755E+02 -0.16739393960E+02  0.84119387625E+02  0.88349769832E+02  0.00000000000E+00 0. -1.
<mgrwt>
<rscale>  0 0.12500236E+03</rscale>
<asrwt>0</asrwt>
<pdfrwt beam="1">  1       21 0.37145496E-01 0.12500236E+03</pdfrwt>
<pdfrwt beam="2">  1       21 0.24891067E-02 0.12500236E+03</pdfrwt>
<totfact> 0.59164139E+06</totfact>
</mgrwt>
</event>
<event>
 9    1  0.4458519E-002  0.1249996E+03  0.7818608E-02  0.1235070E+00
         21   -1    0    0  503  502  0.00000000000E+00  0.00000000000E+00  0.89180752580E+01  0.89180752580E+01  0.00000000000E+00 0.  1.
         21   -1    0    0  502  503 -0.00000000000E+00 -0.00000000000E+00 -0.43801176866E+03  0.43801176866E+03  0.00000000000E+00 0.  1.
         25    2    1    2    0    0  0.26645352591E-14  0.35527136788E-14 -0.42909369341E+03  0.44692984392E+03  0.12499955067E+03 0.  0.
    9000006    2    3    3    0    0 -0.55394547888E+01  0.85975996757E+01 -0.16377677596E+03  0.17472102969E+03  0.60000013247E+02 0.  0.
    9000007    2    3    3    0    0  0.55394547888E+01 -0.85975996757E+01 -0.26531691744E+03  0.27220881424E+03  0.59999729896E+02 0.  0.
          5    1    4    4  501    0 -0.93348850908E+01  0.32774867377E+02 -0.75006121745E+02  0.82518727029E+02  0.47000000000E+01 0. -1.
         -5    1    4    4    0  501  0.37954303020E+01 -0.24177267702E+02 -0.88770654220E+02  0.92202302657E+02  0.47000000000E+01 0. -1.
         12    1    5    5    0    0 -0.13946597295E+02  0.17217015328E+02 -0.53038756982E+02  0.57480804927E+02  0.00000000000E+00 0.  1.
        -12    1    5    5    0    0  0.19486052083E+02 -0.25814615004E+02 -0.21227816046E+03  0.21472800931E+03  0.00000000000E+00 0.  1.
<mgrwt>
<rscale>  0 0.12499955E+03</rscale>
<asrwt>0</asrwt>
<pdfrwt beam="1">  1       21 0.13720119E-02 0.12499955E+03</pdfrwt>
<pdfrwt beam="2">  1       21 0.67386412E-01 0.12499955E+03</pdfrwt>
<totfact> 0.45077062E+06</totfact>
</mgrwt>
</event>
<event>
 9    1  0.4458519E-002  0.1250038E+03  0.7818608E-02  0.1235063E+00
         21   -1    0    0  503  502  0.00000000000E+00  0.00000000000E+00  0.17498537482E+03  0.17498537482E+03  0.00000000000E+00 0.  1.
         21   -1    0    0  502  503 -0.00000000000E+00 -0.00000000000E+00 -0.22324663881E+02  0.22324663881E+02  0.00000000000E+00 0.  1.
         25    2    1    2    0    0  0.00000000000E+00  0.00000000000E+00  0.15266071094E+03  0.19731003870E+03  0.12500383477E+03 0.  0.
    9000006    2    3    3    0    0  0.39891476157E+01 -0.16682851951E+02  0.81840437720E+02  0.10291838431E+03  0.60000881117E+02 0.  0.
    9000007    2    3    3    0    0 -0.39891476157E+01  0.16682851951E+02  0.70820273217E+02  0.94391654390E+02  0.60000353932E+02 0.  0.
          5    1    4    4  501    0  0.20507648677E+02  0.13435768200E+02  0.49814296409E+02  0.55719275373E+02  0.47000000000E+01 0.  1.
         -5    1    4    4    0  501 -0.16518501062E+02 -0.30118620151E+02  0.32026141311E+02  0.47199108936E+02  0.47000000000E+01 0.  1.
         12    1    5    5    0    0 -0.21260036948E+02  0.16899985197E+02  0.72126283911E+02  0.77070094729E+02  0.00000000000E+00 0. -1.
        -12    1    5    5    0    0  0.17270889332E+02 -0.21713324665E+00 -0.13060106939E+01  0.17321559661E+02  0.00000000000E+00 0. -1.
<mgrwt>
<rscale>  0 0.12500383E+03</rscale>
<asrwt>0</asrwt>
<pdfrwt beam="1">  1       21 0.26920826E-01 0.12500383E+03</pdfrwt>
<pdfrwt beam="2">  1       21 0.34345638E-02 0.12500383E+03</pdfrwt>
<totfact> 0.65212746E+06</totfact>
</mgrwt>
</event>
<event>
 9    1  0.4458519E-002  0.1250016E+03  0.7818608E-02  0.1235067E+00
         21   -1    0    0  503  502  0.00000000000E+00  0.00000000000E+00  0.50552004829E+02  0.50552004829E+02  0.00000000000E+00 0.  1.
         21   -1    0    0  502  503 -0.00000000000E+00 -0.00000000000E+00 -0.77273864583E+02  0.77273864583E+02  0.00000000000E+00 0.  1.
         25    2    1    2    0    0  0.17763568394E-14  0.17763568394E-14 -0.26721859754E+02  0.12782586941E+03  0.12500158040E+03 0.  0.
    9000006    2    3    3    0    0  0.15960029662E+02 -0.31531571962E+01 -0.67639170922E+01  0.62534531713E+02  0.60001267778E+02 0.  0.
    9000007    2    3    3    0    0 -0.15960029662E+02  0.31531571962E+01 -0.19957942662E+02  0.65291337699E+02  0.59999786301E+02 0.  0.
          5    1    4    4  501    0 -0.15360191596E+02  0.11109314618E+02  0.12133246599E+02  0.22992564672E+02  0.47000000000E+01 0. -1.
         -5    1    4    4    0  501  0.31320221258E+02 -0.14262471814E+02 -0.18897163691E+02  0.39541967041E+02  0.47000000000E+01 0. -1.
         12    1    5    5    0    0 -0.25705899670E+02 -0.22845798474E+02 -0.10463378095E+02  0.35947267864E+02  0.00000000000E+00 0. -1.
        -12    1    5    5    0    0  0.97458700084E+01  0.25998955670E+02 -0.94945645673E+01  0.29344069835E+02  0.00000000000E+00 0. -1.
<mgrwt>
<rscale>  0 0.12500158E+03</rscale>
<asrwt>0</asrwt>
<pdfrwt beam="1">  1       21 0.77772315E-02 0.12500158E+03</pdfrwt>
<pdfrwt beam="2">  1       21 0.11888287E-01 0.12500158E+03</pdfrwt>
<totfact> 0.73654124E+06</totfact>
</mgrwt>
</event>
<event>
 9    1  0.4458519E-002  0.1249960E+03  0.7818608E-02  0.1235075E+00
         21   -1    0    0  503  502  0.00000000000E+00  0.00000000000E+00  0.55951796417E+02  0.55951796417E+02  0.00000000000E+00 0. -1.
         21   -1    0    0  502  503 -0.00000000000E+00 -0.00000000000E+00 -0.69810141974E+02  0.69810141974E+02  0.00000000000E+00 0. -1.
         25    2    1    2    0    0 -0.71054273576E-14  0.17763568394E-14 -0.13858345557E+02  0.12576193839E+03  0.12499604556E+03 0.  0.
    9000006    2    3    3    0    0  0.15723674856E+02 -0.70614269611E+01 -0.39223382473E+01  0.62549685479E+02  0.59999839287E+02 0.  0.
    9000007    2    3    3    0    0 -0.15723674856E+02  0.70614269611E+01 -0.99360073096E+01  0.63212252911E+02  0.59999724793E+02 0.  0.
          5    1    4    4  501    0  0.28107631263E+02 -0.27761002517E+01  0.19961796147E+02  0.34904283021E+02  0.47000000000E+01 0. -1.
         -5    1    4    4    0  501 -0.12383956407E+02 -0.42853267094E+01 -0.23884134394E+02  0.27645402458E+02  0.47000000000E+01 0. -1.
         12    1    5    5    0    0  0.18295057623E+02 -0.13287069461E+02 -0.58947141697E+01  0.23366707159E+02  0.00000000000E+00 0. -1.
        -12    1    5    5    0    0 -0.34018732479E+02  0.20348496422E+02 -0.40412931399E+01  0.39845545753E+02  0.00000000000E+00 0. -1.
<mgrwt>
<rscale>  0 0.12499605E+03</rscale>
<asrwt>0</asrwt>
<pdfrwt beam="1">  1       21 0.86079687E-02 0.12499605E+03</pdfrwt>
<pdfrwt beam="2">  1       21 0.10740022E-01 0.12499605E+03</pdfrwt>
<totfact> 0.73946403E+06</totfact>
</mgrwt>
</event>
<event>
 9    1  0.4458519E-002  0.1250102E+03  0.7818608E-02  0.1235053E+00
         21   -1    0    0  503  502  0.00000000000E+00  0.00000000000E+00  0.69113759336E+01  0.69113759336E+01  0.00000000000E+00 0. -1.
         21   -1    0    0  502  503 -0.00000000000E+00 -0.00000000000E+00 -0.56528400720E+03  0.56528400720E+03  0.00000000000E+00 0. -1.
         25    2    1    2    0    0  0.17763568394E-14  0.35527136788E-14 -0.55837263127E+03  0.57219538314E+03  0.12501024411E+03 0.  0.
    9000006    2    3    3    0    0  0.81255787374E+01 -0.54171523956E+01 -0.21260136148E+03  0.22112118771E+03  0.59998918151E+02 0.  0.
    9000007    2    3    3    0    0 -0.81255787374E+01  0.54171523956E+01 -0.34577126979E+03  0.35107419543E+03  0.59999575964E+02 0.  0.
          5    1    4    4  501    0 -0.37114941987E+01 -0.27783961669E+02 -0.16063378831E+03  0.16312886827E+03  0.47000000000E+01 0. -1.
         -5    1    4    4    0  501  0.11837072936E+02  0.22366809273E+02 -0.51967573173E+02  0.57992319442E+02  0.47000000000E+01 0. -1.
         12    1    5    5    0    0  0.15152320337E+02  0.25650482712E+02 -0.15737076457E+03  0.16016584410E+03  0.00000000000E+00 0.  1.
        -12    1    5    5    0    0 -0.23277899074E+02 -0.20233330316E+02 -0.18840050521E+03  0.19090835132E+03  0.00000000000E+00 0.  1.
<mgrwt>
<rscale>  0 0.12501024E+03</rscale>
<asrwt>0</asrwt>
<pdfrwt beam="1">  1       21 0.10632887E-02 0.12501024E+03</pdfrwt>
<pdfrwt beam="2">  1       21 0.86966760E-01 0.12501024E+03</pdfrwt>
<totfact> 0.38371259E+06</totfact>
</mgrwt>
</event>
<event>
 9    1  0.4458519E-002  0.1249991E+03  0.7818608E-02  0.1235071E+00
         21   -1    0    0  503  502  0.00000000000E+00  0.00000000000E+00  0.71095839557E+01  0.71095839557E+01  0.00000000000E+00 0.  1.
         21   -1    0    0  502  503 -0.00000000000E+00 -0.00000000000E+00 -0.54942658343E+03  0.54942658343E+03  0.00000000000E+00 0.  1.
         25    2    1    2    0    0  0.17763568394E-14  0.00000000000E+00 -0.54231699947E+03  0.55653616738E+03  0.12499911076E+03 0.  0.
    9000006    2    3    3    0    0 -0.13492101578E+02  0.10712872229E+02 -0.28477854982E+03  0.29154039035E+03  0.60001452735E+02 0.  0.
    9000007    2    3    3    0    0  0.13492101578E+02 -0.10712872229E+02 -0.25753844965E+03  0.26499577703E+03  0.59999219670E+02 0.  0.
          5    1    4    4  501    0 -0.14050555786E+01  0.15850523196E+01  0.10592857227E+01  0.52629514796E+01  0.47000000000E+01 0. -1.
         -5    1    4    4    0  501 -0.12087046000E+02  0.91278199096E+01 -0.28583783555E+03  0.28627743887E+03  0.47000000000E+01 0. -1.
         12    1    5    5    0    0 -0.14931709300E+02 -0.26004945945E+02 -0.11457197739E+03  0.11843120855E+03  0.00000000000E+00 0.  1.
        -12    1    5    5    0    0  0.28423810879E+02  0.15292073716E+02 -0.14296647226E+03  0.14656456848E+03  0.00000000000E+00 0.  1.
<mgrwt>
<rscale>  0 0.12499911E+03</rscale>
<asrwt>0</asrwt>
<pdfrwt beam="1">  1       21 0.10937821E-02 0.12499911E+03</pdfrwt>
<pdfrwt beam="2">  1       21 0.84527170E-01 0.12499911E+03</pdfrwt>
<totfact> 0.39135884E+06</totfact>
</mgrwt>
</event>
<event>
 9    1  0.4458519E-002  0.1249987E+03  0.7818608E-02  0.1235071E+00
         21   -1    0    0  503  502  0.00000000000E+00  0.00000000000E+00  0.87042051727E+02  0.87042051727E+02  0.00000000000E+00 0.  1.
         21   -1    0    0  502  503 -0.00000000000E+00 -0.00000000000E+00 -0.44876804621E+02  0.44876804621E+02  0.00000000000E+00 0.  1.
         25    2    1    2    0    0  0.35527136788E-14  0.00000000000E+00  0.42165247106E+02  0.13191885635E+03  0.12499870638E+03 0.  0.
    9000006    2    3    3    0    0  0.31860135642E+01  0.16563841207E+02  0.16174379723E+02  0.64390699785E+02  0.60000334511E+02 0.  0.
    9000007    2    3    3    0    0 -0.31860135642E+01 -0.16563841207E+02  0.25990867383E+02  0.67528156564E+02  0.60000126863E+02 0.  0.
          5    1    4    4  501    0 -0.18191408783E+02 -0.14702371432E+02  0.31559022718E+01  0.24065261236E+02  0.47000000000E+01 0. -1.
         -5    1    4    4    0  501  0.21377422347E+02  0.31266212639E+02  0.13018477451E+02  0.40325438548E+02  0.47000000000E+01 0. -1.
         12    1    5    5    0    0 -0.17211669269E+02  0.16768196754E+02  0.19143732892E+02  0.30722898471E+02  0.00000000000E+00 0.  1.
        -12    1    5    5    0    0  0.14025655704E+02 -0.33332037961E+02  0.68471344907E+01  0.36805258093E+02  0.00000000000E+00 0.  1.
<mgrwt>
<rscale>  0 0.12499871E+03</rscale>
<asrwt>0</asrwt>
<pdfrwt beam="1">  1       21 0.13391085E-01 0.12499871E+03</pdfrwt>
<pdfrwt beam="2">  1       21 0.69041238E-02 0.12499871E+03</pdfrwt>
<totfact> 0.73109527E+06</totfact>
</mgrwt>
</event>
<event>
 9    1  0.4458519E-002  0.1250000E+03  0.7818608E-02  0.1235069E+00
         21   -1    0    0  503  502  0.00000000000E+00  0.00000000000E+00  0.35911798677E+02  0.35911798677E+02  0.00000000000E+00 0.  1.
         21   -1    0    0  502  503 -0.00000000000E+00 -0.00000000000E+00 -0.10877345660E+03  0.10877345660E+03  0.00000000000E+00 0.  1.
         25    2    1    2    0    0 -0.88817841970E-15  0.00000000000E+00 -0.72861657920E+02  0.14468525527E+03  0.12500000760E+03 0.  0.
    9000006    2    3    3    0    0  0.48397404296E+01  0.15782238966E+02 -0.29694969330E+02  0.68951058196E+02  0.59999625570E+02 0.  0.
    9000007    2    3    3    0    0 -0.48397404296E+01 -0.15782238966E+02 -0.43166688590E+02  0.75734197078E+02  0.59998362053E+02 0.  0.
          5    1    4    4  501    0  0.59216038689E+01  0.82641180379E+01  0.17577169665E+02  0.20842455056E+02  0.47000000000E+01 0. -1.
         -5    1    4    4    0  501 -0.10818634394E+01  0.75181209282E+01 -0.47272138996E+02  0.48108603139E+02  0.47000000000E+01 0. -1.
         12    1    5    5    0    0 -0.28026314814E+02 -0.65673011616E+00 -0.38553728162E+02  0.47668601529E+02  0.00000000000E+00 0.  1.
        -12    1    5    5    0    0  0.23186574384E+02 -0.15125508850E+02 -0.46129604278E+01  0.28065595550E+02  0.00000000000E+00 0.  1.
<mgrwt>
<rscale>  0 0.12500001E+03</rscale>
<asrwt>0</asrwt>
<pdfrwt beam="1">  1       21 0.55248923E-02 0.12500001E+03</pdfrwt>
<pdfrwt beam="2">  1       21 0.16734377E-01 0.12500001E+03</pdfrwt>
<totfact> 0.71433389E+06</totfact>
</mgrwt>
</event>
<event>
 9    1  0.4458519E-002  0.1249974E+03  0.7818608E-02  0.1235073E+00
         21   -1    0    0  503  502  0.00000000000E+00  0.00000000000E+00  0.55153750956E+01  0.55153750956E+01  0.00000000000E+00 0.  1.
         21   -1    0    0  502  503 -0.00000000000E+00 -0.00000000000E+00 -0.70821771941E+03  0.70821771941E+03  0.00000000000E+00 0.  1.
         25    2    1    2    0    0 -0.17763568394E-14  0.17763568394E-14 -0.70270234432E+03  0.71373309451E+03  0.12499738192E+03 0.  0.
    9000006    2    3    3    0    0 -0.11123204109E+02  0.12180803363E+02 -0.38467583616E+03  0.38967601559E+03  0.59998337979E+02 0.  0.
    9000007    2    3    3    0    0  0.11123204109E+02 -0.12180803363E+02 -0.31802650816E+03  0.32405707892E+03  0.60000273887E+02 0.  0.
          5    1    4    4  501    0  0.32989435409E+01 -0.22239886486E+02 -0.10506531364E+03  0.10754676058E+03  0.47000000000E+01 0. -1.
         -5    1    4    4    0  501 -0.14422147650E+02  0.34420689849E+02 -0.27961052252E+03  0.28212925501E+03  0.47000000000E+01 0. -1.
         12    1    5    5    0    0 -0.22997947735E+02 -0.10650292433E+02 -0.18444376134E+03  0.18617689283E+03  0.00000000000E+00 0.  1.
        -12    1    5    5    0    0  0.34121151845E+02 -0.15305109301E+01 -0.13358274682E+03  0.13788018609E+03  0.00000000000E+00 0.  1.
<mgrwt>
<rscale>  0 0.12499738E+03</rscale>
<asrwt>0</asrwt>
<pdfrwt beam="1">  1       21 0.84851917E-03 0.12499738E+03</pdfrwt>
<pdfrwt beam="2">  1       21 0.10895658E+00 0.12499738E+03</pdfrwt>
<totfact> 0.32389464E+06</totfact>
</mgrwt>
</event>
<event>
 9    1  0.4458519E-002  0.1250008E+03  0.7818608E-02  0.1235068E+00
         21   -1    0    0  503  502  0.00000000000E+00  0.00000000000E+00  0.53125185100E+03  0.53125185100E+03  0.00000000000E+00 0.  1.
         21   -1    0    0  502  503 -0.00000000000E+00 -0.00000000000E+00 -0.73530071114E+01  0.73530071114E+01  0.00000000000E+00 0.  1.
         25    2    1    2    0    0  0.00000000000E+00 -0.88817841970E-15  0.52389884389E+03  0.53860485811E+03  0.12500077821E+03 0.  0.
    9000006    2    3    3    0    0  0.13545775112E+02 -0.26892032530E+01  0.30828142576E+03  0.31436943611E+03  0.59999875445E+02 0.  0.
    9000007    2    3    3    0    0 -0.13545775112E+02  0.26892032530E+01  0.21561741813E+03  0.22423542200E+03  0.59999447019E+02 0.  0.
          5    1    4    4  501    0  0.28267861628E+02  0.61294156426E+01  0.27564028135E+03  0.27719360822E+03  0.47000000000E+01 0. -1.
         -5    1    4    4    0  501 -0.14722086516E+02 -0.88186188956E+01  0.32641144410E+02  0.37175827886E+02  0.47000000000E+01 0. -1.
         12    1    5    5    0    0 -0.83826669875E+01  0.21607076268E+02  0.19263390714E+03  0.19402308375E+03  0.00000000000E+00 0.  1.
        -12    1    5    5    0    0 -0.51631081249E+01 -0.18917873015E+02  0.22983510992E+02  0.30212338249E+02  0.00000000000E+00 0.  1.
<mgrwt>
<rscale>  0 0.12500078E+03</rscale>
<asrwt>0</asrwt>
<pdfrwt beam="1">  1       21 0.81731024E-01 0.12500078E+03</pdfrwt>
<pdfrwt beam="2">  1       21 0.11312323E-02 0.12500078E+03</pdfrwt>
<totfact> 0.40024192E+06</totfact>
</mgrwt>
</event>
<event>
 9    1  0.4458519E-002  0.1249985E+03  0.7818608E-02  0.1235072E+00
         21   -1    0    0  503  502  0.00000000000E+00  0.00000000000E+00  0.78863679136E+02  0.78863679136E+02  0.00000000000E+00 0.  1.
         21   -1    0    0  502  503 -0.00000000000E+00 -0.00000000000E+00 -0.49530475340E+02  0.49530475340E+02  0.00000000000E+00 0.  1.
         25    2    1    2    0    0  0.17763568394E-14  0.44408920985E-15  0.29333203796E+02  0.12839415448E+03  0.12499848823E+03 0.  0.
    9000006    2    3    3    0    0  0.10144768120E+02 -0.33730191730E+01  0.41717213810E+00  0.60948165197E+02  0.60001760222E+02 0.  0.
    9000007    2    3    3    0    0 -0.10144768120E+02  0.33730191730E+01  0.28916031658E+02  0.67445989280E+02  0.59987757122E+02 0.  0.
          5    1    4    4  501    0  0.12105680813E+02 -0.42396184350E+01 -0.28483254750E+02  0.31589676694E+02  0.47000000000E+01 0.  1.
         -5    1    4    4    0  501 -0.19609126936E+01  0.86659926202E+00  0.28900426889E+02  0.29358488504E+02  0.47000000000E+01 0.  1.
         12    1    5    5    0    0  0.15592578830E+02 -0.10094417752E+01  0.36959938784E+02  0.40127105081E+02  0.00000000000E+00 0. -1.
        -12    1    5    5    0    0 -0.25737346950E+02  0.43824609482E+01 -0.80439071263E+01  0.27318884198E+02  0.00000000000E+00 0. -1.
<mgrwt>
<rscale>  0 0.12499849E+03</rscale>
<asrwt>0</asrwt>
<pdfrwt beam="1">  1       21 0.12132874E-01 0.12499849E+03</pdfrwt>
<pdfrwt beam="2">  1       21 0.76200732E-02 0.12499849E+03</pdfrwt>
<totfact> 0.73583221E+06</totfact>
</mgrwt>
</event>
<event>
 9    1  0.4458519E-002  0.1250042E+03  0.7818608E-02  0.1235063E+00
         21   -1    0    0  503  502  0.00000000000E+00  0.00000000000E+00  0.45209341419E+03  0.45209341419E+03  0.00000000000E+00 0.  1.
         21   -1    0    0  502  503 -0.00000000000E+00 -0.00000000000E+00 -0.86409394962E+01  0.86409394962E+01  0.00000000000E+00 0.  1.
         25    2    1    2    0    0  0.88817841970E-15  0.17763568394E-14  0.44345247469E+03  0.46073435369E+03  0.12500418935E+03 0.  0.
    9000006    2    3    3    0    0 -0.47614805398E+01  0.14354664942E+02  0.18918509200E+03  0.19904699459E+03  0.59999824291E+02 0.  0.
    9000007    2    3    3    0    0  0.47614805398E+01 -0.14354664942E+02  0.25426738269E+03  0.26168735910E+03  0.59997032510E+02 0.  0.
          5    1    4    4  501    0 -0.65988476906E+01 -0.48349558500E+01  0.63521878787E+00  0.94559553628E+01  0.47000000000E+01 0.  1.
         -5    1    4    4    0  501  0.18373671508E+01  0.19189620792E+02  0.18854987322E+03  0.18959103922E+03  0.47000000000E+01 0.  1.
         12    1    5    5    0    0  0.24908322838E+02 -0.61470257726E+01  0.21718259607E+03  0.21869268508E+03  0.00000000000E+00 0.  1.
        -12    1    5    5    0    0 -0.20146842298E+02 -0.82076391695E+01  0.37084786622E+02  0.42994674020E+02  0.00000000000E+00 0.  1.
<mgrwt>
<rscale>  0 0.12500419E+03</rscale>
<asrwt>0</asrwt>
<pdfrwt beam="1">  1       21 0.69552815E-01 0.12500419E+03</pdfrwt>
<pdfrwt beam="2">  1       21 0.13293757E-02 0.12500419E+03</pdfrwt>
<totfact> 0.44252224E+06</totfact>
</mgrwt>
</event>
<event>
 9    1  0.4458519E-002  0.1250211E+03  0.7818608E-02  0.1235036E+00
         21   -1    0    0  503  502  0.00000000000E+00  0.00000000000E+00  0.76934612790E+01  0.76934612790E+01  0.00000000000E+00 0. -1.
         21   -1    0    0  502  503 -0.00000000000E+00 -0.00000000000E+00 -0.50790798367E+03  0.50790798367E+03  0.00000000000E+00 0. -1.
         25    2    1    2    0    0  0.00000000000E+00  0.00000000000E+00 -0.50021452239E+03  0.51560144495E+03  0.12502112471E+03 0.  0.
    9000006    2    3    3    0    0  0.93426070061E+01 -0.12449478272E+02 -0.28341859972E+03  0.29011788242E+03  0.60000076828E+02 0.  0.
    9000007    2    3    3    0    0 -0.93426070061E+01  0.12449478272E+02 -0.21679592267E+03  0.22548356252E+03  0.60000758894E+02 0.  0.
          5    1    4    4  501    0  0.29844729157E+02  0.26558459882E+01 -0.89987499450E+02  0.94961052193E+02  0.47000000000E+01 0.  1.
         -5    1    4    4    0  501 -0.20502122151E+02 -0.15105324260E+02 -0.19343110027E+03  0.19515683023E+03  0.47000000000E+01 0.  1.
         12    1    5    5    0    0 -0.82917064222E+01 -0.17176255012E+02 -0.25180037546E+02  0.31588137369E+02  0.00000000000E+00 0.  1.
        -12    1    5    5    0    0 -0.10509005839E+01  0.29625733284E+02 -0.19161588512E+03  0.19389542516E+03  0.00000000000E+00 0.  1.
<mgrwt>
<rscale>  0 0.12502112E+03</rscale>
<asrwt>0</asrwt>
<pdfrwt beam="1">  1       21 0.11836094E-02 0.12502112E+03</pdfrwt>
<pdfrwt beam="2">  1       21 0.78139695E-01 0.12502112E+03</pdfrwt>
<totfact> 0.41188753E+06</totfact>
</mgrwt>
</event>
<event>
 9    1  0.4458519E-002  0.1249985E+03  0.7818608E-02  0.1235072E+00
         21   -1    0    0  503  502  0.00000000000E+00  0.00000000000E+00  0.68137397428E+02  0.68137397428E+02  0.00000000000E+00 0. -1.
         21   -1    0    0  502  503 -0.00000000000E+00 -0.00000000000E+00 -0.57327671914E+02  0.57327671914E+02  0.00000000000E+00 0. -1.
         25    2    1    2    0    0  0.00000000000E+00  0.44408920985E-15  0.10809725514E+02  0.12546506934E+03  0.12499853383E+03 0.  0.
    9000006    2    3    3    0    0 -0.15847245873E+02 -0.20587034917E+01 -0.17420472322E+01  0.62116806904E+02  0.60000745908E+02 0.  0.
    9000007    2    3    3    0    0  0.15847245873E+02  0.20587034917E+01  0.12551772746E+02  0.63348262437E+02  0.60000682437E+02 0.  0.
          5    1    4    4  501    0  0.13761257330E+02  0.15182979393E+02 -0.14186601156E+02  0.25362269593E+02  0.47000000000E+01 0.  1.
         -5    1    4    4    0  501 -0.29608503203E+02 -0.17241682885E+02  0.12444553923E+02  0.36754537311E+02  0.47000000000E+01 0.  1.
         12    1    5    5    0    0 -0.68051634218E+01  0.42429870189E+01 -0.21185734416E+02  0.22652781965E+02  0.00000000000E+00 0.  1.
        -12    1    5    5    0    0  0.22652409295E+02 -0.21842835271E+01  0.33737507161E+02  0.40695480472E+02  0.00000000000E+00 0.  1.
<mgrwt>
<rscale>  0 0.12499853E+03</rscale>
<asrwt>0</asrwt>
<pdfrwt beam="1">  1       21 0.10482677E-01 0.12499853E+03</pdfrwt>
<pdfrwt beam="2">  1       21 0.88196418E-02 0.12499853E+03</pdfrwt>
<totfact> 0.73983049E+06</totfact>
</mgrwt>
</event>
<event>
 9    1  0.4458519E-002  0.1249982E+03  0.7818608E-02  0.1235072E+00
         21   -1    0    0  503  502  0.00000000000E+00  0.00000000000E+00  0.32976204155E+02  0.32976204155E+02  0.00000000000E+00 0.  1.
         21   -1    0    0  502  503 -0.00000000000E+00 -0.00000000000E+00 -0.11845330063E+03  0.11845330063E+03  0.00000000000E+00 0.  1.
         25    2    1    2    0    0 -0.17763568394E-14  0.00000000000E+00 -0.85477096474E+02  0.15142950478E+03  0.12499824358E+03 0.  0.
    9000006    2    3    3    0    0 -0.81127870881E+01 -0.11961829496E+02 -0.54682854150E+02  0.82457037432E+02  0.60000381705E+02 0.  0.
    9000007    2    3    3    0    0  0.81127870881E+01  0.11961829496E+02 -0.30794242324E+02  0.68972467353E+02  0.60000110110E+02 0.  0.
          5    1    4    4  501    0 -0.77421482591E+01 -0.14111570655E+02 -0.67014785860E+02  0.69080741237E+02  0.47000000000E+01 0.  1.
         -5    1    4    4    0  501 -0.37063882895E+00  0.21497411596E+01  0.12331931710E+02  0.13376296195E+02  0.47000000000E+01 0.  1.
         12    1    5    5    0    0 -0.22901955725E+01 -0.23921615915E+02 -0.86409534477E+01  0.25537321321E+02  0.00000000000E+00 0. -1.
        -12    1    5    5    0    0  0.10402982661E+02  0.35883445411E+02 -0.22153288876E+02  0.43435146032E+02  0.00000000000E+00 0. -1.
<mgrwt>
<rscale>  0 0.12499824E+03</rscale>
<asrwt>0</asrwt>
<pdfrwt beam="1">  1       21 0.50732622E-02 0.12499824E+03</pdfrwt>
<pdfrwt beam="2">  1       21 0.18223585E-01 0.12499824E+03</pdfrwt>
<totfact> 0.70583244E+06</totfact>
</mgrwt>
</event>
<event>
 9    1  0.4458519E-002  0.1249961E+03  0.7818608E-02  0.1235075E+00
         21   -1    0    0  503  502  0.00000000000E+00  0.00000000000E+00  0.17930136972E+03  0.17930136972E+03  0.00000000000E+00 0. -1.
         21   -1    0    0  502  503 -0.00000000000E+00 -0.00000000000E+00 -0.21784574608E+02  0.21784574608E+02  0.00000000000E+00 0. -1.
         25    2    1    2    0    0  0.00000000000E+00 -0.17763568394E-14  0.15751679511E+03  0.20108594432E+03  0.12499606499E+03 0.  0.
    9000006    2    3    3    0    0 -0.89688934615E+01 -0.99389737564E+01  0.60642635795E+02  0.86352137480E+02  0.59999484347E+02 0.  0.
    9000007    2    3    3    0    0  0.89688934615E+01  0.99389737564E+01  0.96874159314E+02  0.11473380684E+03  0.60000162009E+02 0.  0.
          5    1    4    4  501    0 -0.15482956408E+02 -0.11253967708E+02  0.70710250784E+02  0.73405744286E+02  0.47000000000E+01 0. -1.
         -5    1    4    4    0  501  0.65140629463E+01  0.13149939518E+01 -0.10067614989E+02  0.12946393194E+02  0.47000000000E+01 0. -1.
         12    1    5    5    0    0  0.11671516670E+02  0.22190120793E+02  0.10055994019E+02  0.27013862698E+02  0.00000000000E+00 0. -1.
        -12    1    5    5    0    0 -0.27026232083E+01 -0.12251147036E+02  0.86818165295E+02  0.87719944146E+02  0.00000000000E+00 0. -1.
<mgrwt>
<rscale>  0 0.12499606E+03</rscale>
<asrwt>0</asrwt>
<pdfrwt beam="1">  1       21 0.27584825E-01 0.12499606E+03</pdfrwt>
<pdfrwt beam="2">  1       21 0.33514731E-02 0.12499606E+03</pdfrwt>
<totfact> 0.64816229E+06</totfact>
</mgrwt>
</event>
<event>
 9    1  0.4458519E-002  0.1250021E+03  0.7818608E-02  0.1235066E+00
         21   -1    0    0  503  502  0.00000000000E+00  0.00000000000E+00  0.74318921163E+03  0.74318921163E+03  0.00000000000E+00 0.  1.
         21   -1    0    0  502  503 -0.00000000000E+00 -0.00000000000E+00 -0.52562410540E+01  0.52562410540E+01  0.00000000000E+00 0.  1.
         25    2    1    2    0    0 -0.88817841970E-15  0.00000000000E+00  0.73793297058E+03  0.74844545268E+03  0.12500210630E+03 0.  0.
    9000006    2    3    3    0    0  0.19081525160E+01  0.17218925168E+02  0.35401343852E+03  0.35947975027E+03  0.60000364756E+02 0.  0.
    9000007    2    3    3    0    0 -0.19081525160E+01 -0.17218925168E+02  0.38391953206E+03  0.38896570242E+03  0.59999817758E+02 0.  0.
          5    1    4    4  501    0 -0.44415864874E+01 -0.21722088676E+02  0.12155056828E+03  0.12364549113E+03  0.47000000000E+01 0.  1.
         -5    1    4    4    0  501  0.63497390034E+01  0.38941013844E+02  0.23246287024E+03  0.23583425914E+03  0.47000000000E+01 0.  1.
         12    1    5    5    0    0 -0.44501182367E+01  0.21339165311E+02  0.94713473213E+02  0.97189534090E+02  0.00000000000E+00 0.  1.
        -12    1    5    5    0    0  0.25419657207E+01 -0.38558090478E+02  0.28920605885E+03  0.29177616833E+03  0.00000000000E+00 0.  1.
<mgrwt>
<rscale>  0 0.12500211E+03</rscale>
<asrwt>0</asrwt>
<pdfrwt beam="1">  1       21 0.11433672E+00 0.12500211E+03</pdfrwt>
<pdfrwt beam="2">  1       21 0.80865306E-03 0.12500211E+03</pdfrwt>
<totfact> 0.31122004E+06</totfact>
</mgrwt>
</event>
<event>
 9    1  0.4458519E-002  0.1250001E+03  0.7818608E-02  0.1235069E+00
         21   -1    0    0  503  502  0.00000000000E+00  0.00000000000E+00  0.98522331220E+02  0.98522331220E+02  0.00000000000E+00 0.  1.
         21   -1    0    0  502  503 -0.00000000000E+00 -0.00000000000E+00 -0.39648420080E+02  0.39648420080E+02  0.00000000000E+00 0.  1.
         25    2    1    2    0    0  0.00000000000E+00  0.17763568394E-14  0.58873911139E+02  0.13817075130E+03  0.12500007641E+03 0.  0.
    9000006    2    3    3    0    0 -0.15484026395E+02 -0.80960767467E+01  0.30538003001E+02  0.69555038333E+02  0.60000268317E+02 0.  0.
    9000007    2    3    3    0    0  0.15484026395E+02  0.80960767467E+01  0.28335908138E+02  0.68615712967E+02  0.59999090359E+02 0.  0.
          5    1    4    4  501    0 -0.37820759203E+02 -0.10434184112E+02  0.18222632228E+02  0.43513634072E+02  0.47000000000E+01 0.  1.
         -5    1    4    4    0  501  0.22336732808E+02  0.23381073658E+01  0.12315370773E+02  0.26041404261E+02  0.47000000000E+01 0.  1.
         12    1    5    5    0    0  0.50257786977E+01  0.10949460205E+02 -0.17649697409E+02  0.21369626785E+02  0.00000000000E+00 0. -1.
        -12    1    5    5    0    0  0.10458247698E+02 -0.28533834580E+01  0.45985605547E+02  0.47246086182E+02  0.00000000000E+00 0. -1.
<mgrwt>
<rscale>  0 0.12500008E+03</rscale>
<asrwt>0</asrwt>
<pdfrwt beam="1">  1       21 0.15157282E-01 0.12500008E+03</pdfrwt>
<pdfrwt beam="2">  1       21 0.60997570E-02 0.12500008E+03</pdfrwt>
<totfact> 0.72278881E+06</totfact>
</mgrwt>
</event>
<event>
 9    1  0.4458519E-002  0.1250129E+03  0.7818608E-02  0.1235049E+00
         21   -1    0    0  503  502  0.00000000000E+00  0.00000000000E+00  0.91309744103E+03  0.91309744103E+03  0.00000000000E+00 0. -1.
         21   -1    0    0  502  503 -0.00000000000E+00 -0.00000000000E+00 -0.42789046895E+01  0.42789046895E+01  0.00000000000E+00 0. -1.
         25    2    1    2    0    0  0.17763568394E-14  0.00000000000E+00  0.90881853634E+03  0.91737634572E+03  0.12501291009E+03 0.  0.
    9000006    2    3    3    0    0  0.14148993054E+02 -0.81760362442E+01  0.50082366736E+03  0.50466950074E+03  0.59999313451E+02 0.  0.
    9000007    2    3    3    0    0 -0.14148993054E+02  0.81760362442E+01  0.40799486898E+03  0.41270684498E+03  0.60000710052E+02 0.  0.
          5    1    4    4  501    0 -0.10093633913E+02 -0.64205614171E+01  0.41865980028E+03  0.41885704413E+03  0.47000000000E+01 0.  1.
         -5    1    4    4    0  501  0.24242626967E+02 -0.17554748271E+01  0.82163867084E+02  0.85812456604E+02  0.47000000000E+01 0.  1.
         12    1    5    5    0    0  0.96173721537E+01  0.18845542563E+02  0.57909951299E+02  0.61653959979E+02  0.00000000000E+00 0. -1.
        -12    1    5    5    0    0 -0.23766365208E+02 -0.10669506319E+02  0.35008491768E+03  0.35105288500E+03  0.00000000000E+00 0. -1.
<mgrwt>
<rscale>  0 0.12501291E+03</rscale>
<asrwt>0</asrwt>
<pdfrwt beam="1">  1       21 0.14047637E+00 0.12501291E+03</pdfrwt>
<pdfrwt beam="2">  1       21 0.65829376E-03 0.12501291E+03</pdfrwt>
<totfact> 0.25797412E+06</totfact>
</mgrwt>
</event>
<event>
 9    1  0.4458519E-002  0.1250010E+03  0.7818608E-02  0.1235068E+00
         21   -1    0    0  503  502  0.00000000000E+00  0.00000000000E+00  0.48565668748E+03  0.48565668748E+03  0.00000000000E+00 0.  1.
         21   -1    0    0  502  503 -0.00000000000E+00 -0.00000000000E+00 -0.80433619358E+01  0.80433619358E+01  0.00000000000E+00 0.  1.
         25    2    1    2    0    0  0.00000000000E+00  0.00000000000E+00  0.47761332554E+03  0.49370004941E+03  0.12500100022E+03 0.  0.
    9000006    2    3    3    0    0 -0.89252672917E+01  0.14372858753E+02  0.22110941359E+03  0.22972934012E+03  0.59999645560E+02 0.  0.
    9000007    2    3    3    0    0  0.89252672917E+01 -0.14372858753E+02  0.25650391195E+03  0.26397070929E+03  0.60000325458E+02 0.  0.
          5    1    4    4  501    0 -0.73188411393E+01  0.29117804935E+01  0.95632044207E+00  0.92221716560E+01  0.47000000000E+01 0.  1.
         -5    1    4    4    0  501 -0.16064261525E+01  0.11461078260E+02  0.22015309315E+03  0.22050716846E+03  0.47000000000E+01 0.  1.
         12    1    5    5    0    0  0.24076338665E+02 -0.11666960715E+01  0.41219723356E+02  0.47750359756E+02  0.00000000000E+00 0.  1.
        -12    1    5    5    0    0 -0.15151071373E+02 -0.13206162682E+02  0.21528418859E+03  0.21622034954E+03  0.00000000000E+00 0.  1.
<mgrwt>
<rscale>  0 0.12500100E+03</rscale>
<asrwt>0</asrwt>
<pdfrwt beam="1">  1       21 0.74716391E-01 0.12500100E+03</pdfrwt>
<pdfrwt beam="2">  1       21 0.12374407E-02 0.12500100E+03</pdfrwt>
<totfact> 0.42386757E+06</totfact>
</mgrwt>
</event>
<event>
 9    1  0.4458519E-002  0.1249970E+03  0.7818608E-02  0.1235074E+00
         21   -1    0    0  503  502  0.00000000000E+00  0.00000000000E+00  0.19652819954E+02  0.19652819954E+02  0.00000000000E+00 0.  1.
         21   -1    0    0  502  503 -0.00000000000E+00 -0.00000000000E+00 -0.19875316891E+03  0.19875316891E+03  0.00000000000E+00 0.  1.
         25    2    1    2    0    0  0.17763568394E-14 -0.17763568394E-14 -0.17910034895E+03  0.21840598886E+03  0.12499696386E+03 0.  0.
    9000006    2    3    3    0    0 -0.12925707645E+02  0.49068148119E+01 -0.10827526823E+03  0.12455783798E+03  0.59999754511E+02 0.  0.
    9000007    2    3    3    0    0  0.12925707645E+02 -0.49068148119E+01 -0.70825080718E+02  0.93848150879E+02  0.60001105116E+02 0.  0.
          5    1    4    4  501    0  0.19625127731E+02  0.13833580042E+02 -0.27050099583E+02  0.36473435028E+02  0.47000000000E+01 0.  1.
         -5    1    4    4    0  501 -0.32550835376E+02 -0.89267652303E+01 -0.81225168651E+02  0.88084402953E+02  0.47000000000E+01 0.  1.
         12    1    5    5    0    0 -0.13137867256E+02  0.11604736728E+02 -0.57726512646E+02  0.60329294151E+02  0.00000000000E+00 0. -1.
        -12    1    5    5    0    0  0.26063574900E+02 -0.16511551540E+02 -0.13098568072E+02  0.33518856728E+02  0.00000000000E+00 0. -1.
<mgrwt>
<rscale>  0 0.12499696E+03</rscale>
<asrwt>0</asrwt>
<pdfrwt beam="1">  1       21 0.30235107E-02 0.12499696E+03</pdfrwt>
<pdfrwt beam="2">  1       21 0.30577412E-01 0.12499696E+03</pdfrwt>
<totfact> 0.62990670E+06</totfact>
</mgrwt>
</event>
<event>
 9    1  0.4458519E-002  0.1249974E+03  0.7818608E-02  0.1235073E+00
         21   -1    0    0  503  502  0.00000000000E+00  0.00000000000E+00  0.10408007569E+02  0.10408007569E+02  0.00000000000E+00 0. -1.
         21   -1    0    0  502  503 -0.00000000000E+00 -0.00000000000E+00 -0.37529632210E+03  0.37529632210E+03  0.00000000000E+00 0. -1.
         25    2    1    2    0    0 -0.17763568394E-14 -0.88817841970E-15 -0.36488831453E+03  0.38570432967E+03  0.12499739135E+03 0.  0.
    9000006    2    3    3    0    0  0.34491207500E+01 -0.30711078692E+01 -0.13036842481E+03  0.14358683953E+03  0.59999384673E+02 0.  0.
    9000007    2    3    3    0    0 -0.34491207500E+01  0.30711078692E+01 -0.23451988972E+03  0.24211749014E+03  0.59999768495E+02 0.  0.
          5    1    4    4  501    0  0.14358786512E+02 -0.12334486085E+02 -0.12655318592E+03  0.12804730830E+03  0.47000000000E+01 0. -1.
         -5    1    4    4    0  501 -0.10909665762E+02  0.92633782162E+01 -0.38152388928E+01  0.15539531229E+02  0.47000000000E+01 0. -1.
         12    1    5    5    0    0 -0.30025387784E+02  0.10734253018E+02 -0.14286289302E+03  0.14637812098E+03  0.00000000000E+00 0.  1.
        -12    1    5    5    0    0  0.26576267034E+02 -0.76631451487E+01 -0.91656996700E+02  0.95739369160E+02  0.00000000000E+00 0.  1.
<mgrwt>
<rscale>  0 0.12499739E+03</rscale>
<asrwt>0</asrwt>
<pdfrwt beam="1">  1       21 0.16012315E-02 0.12499739E+03</pdfrwt>
<pdfrwt beam="2">  1       21 0.57737911E-01 0.12499739E+03</pdfrwt>
<totfact> 0.49007439E+06</totfact>
</mgrwt>
</event>
<event>
 9    1  0.4458519E-002  0.1250067E+03  0.7818608E-02  0.1235059E+00
         21   -1    0    0  503  502  0.00000000000E+00  0.00000000000E+00  0.92230443782E+02  0.92230443782E+02  0.00000000000E+00 0. -1.
         21   -1    0    0  502  503 -0.00000000000E+00 -0.00000000000E+00 -0.42357670659E+02  0.42357670659E+02  0.00000000000E+00 0. -1.
         25    2    1    2    0    0  0.00000000000E+00 -0.88817841970E-15  0.49872773123E+02  0.13458811444E+03  0.12500666802E+03 0.  0.
    9000006    2    3    3    0    0  0.10342010477E+02  0.78153214709E+01  0.37611020353E+02  0.71990940453E+02  0.60000585204E+02 0.  0.
    9000007    2    3    3    0    0 -0.10342010477E+02 -0.78153214709E+01  0.12261752770E+02  0.62597173989E+02  0.60000159833E+02 0.  0.
          5    1    4    4  501    0  0.26754339749E+02  0.14182112925E+01 -0.31068747247E+01  0.27377886866E+02  0.47000000000E+01 0.  1.
         -5    1    4    4    0  501 -0.16412329272E+02  0.63971101784E+01  0.40717895078E+02  0.44613053587E+02  0.47000000000E+01 0.  1.
         12    1    5    5    0    0 -0.33414292883E+02  0.21665879288E+01 -0.22681946413E+01  0.33561194541E+02  0.00000000000E+00 0.  1.
        -12    1    5    5    0    0  0.23072282406E+02 -0.99819093997E+01  0.14529947411E+02  0.29035979447E+02  0.00000000000E+00 0.  1.
<mgrwt>
<rscale>  0 0.12500667E+03</rscale>
<asrwt>0</asrwt>
<pdfrwt beam="1">  1       21 0.14189299E-01 0.12500667E+03</pdfrwt>
<pdfrwt beam="2">  1       21 0.65165647E-02 0.12500667E+03</pdfrwt>
<totfact> 0.72738682E+06</totfact>
</mgrwt>
</event>
<event>
 9    1  0.4458519E-002  0.1250006E+03  0.7818608E-02  0.1235068E+00
         21   -1    0    0  503  502  0.00000000000E+00  0.00000000000E+00  0.73247216198E+03  0.73247216198E+03  0.00000000000E+00 0. -1.
         21   -1    0    0  502  503 -0.00000000000E+00 -0.00000000000E+00 -0.53330183780E+01  0.53330183780E+01  0.00000000000E+00 0. -1.
         25    2    1    2    0    0 -0.17763568394E-14  0.00000000000E+00  0.72713914360E+03  0.73780518036E+03  0.12500060002E+03 0.  0.
    9000006    2    3    3    0    0  0.56196171592E+01 -0.98619561798E+01  0.28496196230E+03  0.29143136771E+03  0.60000698753E+02 0.  0.
    9000007    2    3    3    0    0 -0.56196171592E+01  0.98619561798E+01  0.44217718130E+03  0.44637381265E+03  0.60000688971E+02 0.  0.
          5    1    4    4  501    0  0.18878256028E+02  0.61178085881E+01  0.34578642068E+02  0.40144596397E+02  0.47000000000E+01 0.  1.
         -5    1    4    4    0  501 -0.13258638869E+02 -0.15979764768E+02  0.25038332023E+03  0.25128677131E+03  0.47000000000E+01 0.  1.
         12    1    5    5    0    0 -0.17028311573E+02  0.31725576514E+02  0.23693026601E+03  0.23965063437E+03  0.00000000000E+00 0. -1.
        -12    1    5    5    0    0  0.11408694414E+02 -0.21863620334E+02  0.20524691529E+03  0.20672317828E+03  0.00000000000E+00 0. -1.
<mgrwt>
<rscale>  0 0.12500060E+03</rscale>
<asrwt>0</asrwt>
<pdfrwt beam="1">  1       21 0.11268795E+00 0.12500060E+03</pdfrwt>
<pdfrwt beam="2">  1       21 0.82046495E-03 0.12500060E+03</pdfrwt>
<totfact> 0.31502041E+06</totfact>
</mgrwt>
</event>
<event>
 9    1  0.4458519E-002  0.1250075E+03  0.7818608E-02  0.1235058E+00
         21   -1    0    0  503  502  0.00000000000E+00  0.00000000000E+00  0.20229406170E+02  0.20229406170E+02  0.00000000000E+00 0. -1.
         21   -1    0    0  502  503 -0.00000000000E+00 -0.00000000000E+00 -0.19312077123E+03  0.19312077123E+03  0.00000000000E+00 0. -1.
         25    2    1    2    0    0 -0.17763568394E-14 -0.35527136788E-14 -0.17289136506E+03  0.21335017740E+03  0.12500749611E+03 0.  0.
    9000006    2    3    3    0    0 -0.26416718486E+01  0.13633111276E+02 -0.10461157503E+03  0.12139900019E+03  0.60010794563E+02 0.  0.
    9000007    2    3    3    0    0  0.26416718486E+01 -0.13633111276E+02 -0.68279790033E+02  0.91951177211E+02  0.60000409251E+02 0.  0.
          5    1    4    4  501    0  0.24220813690E+02  0.46122898475E+01 -0.20152092567E+02  0.32188784821E+02  0.47000000000E+01 0. -1.
         -5    1    4    4    0  501 -0.26862485538E+02  0.90208214283E+01 -0.84459482464E+02  0.89210215371E+02  0.47000000000E+01 0. -1.
         12    1    5    5    0    0  0.93712509524E+01  0.71843727215E-01 -0.74774284462E+02  0.75359267000E+02  0.00000000000E+00 0. -1.
        -12    1    5    5    0    0 -0.67295791038E+01 -0.13704955003E+02  0.64944944293E+01  0.16591910211E+02  0.00000000000E+00 0. -1.
<mgrwt>
<rscale>  0 0.12500750E+03</rscale>
<asrwt>0</asrwt>
<pdfrwt beam="1">  1       21 0.31122163E-02 0.12500750E+03</pdfrwt>
<pdfrwt beam="2">  1       21 0.29710888E-01 0.12500750E+03</pdfrwt>
<totfact> 0.63496736E+06</totfact>
</mgrwt>
</event>
<event>
 9    1  0.4458519E-002  0.1250009E+03  0.7818608E-02  0.1235068E+00
         21   -1    0    0  503  502  0.00000000000E+00  0.00000000000E+00  0.36644510102E+01  0.36644510102E+01  0.00000000000E+00 0.  1.
         21   -1    0    0  502  503 -0.00000000000E+00 -0.00000000000E+00 -0.10660008524E+04  0.10660008524E+04  0.00000000000E+00 0.  1.
         25    2    1    2    0    0  0.71054273576E-14  0.17763568394E-14 -0.10623364014E+04  0.10696653034E+04  0.12500092640E+03 0.  0.
    9000006    2    3    3    0    0  0.97103434008E+01 -0.92768752506E+01 -0.43518249055E+03  0.43950444011E+03  0.60000013482E+02 0.  0.
    9000007    2    3    3    0    0 -0.97103434008E+01  0.92768752506E+01 -0.62715391085E+03  0.63016086330E+03  0.60002787947E+02 0.  0.
          5    1    4    4  501    0  0.29365771644E+02  0.10576153138E+02 -0.27833763325E+03  0.28012163722E+03  0.47000000000E+01 0. -1.
         -5    1    4    4    0  501 -0.19655428243E+02 -0.19853028389E+02 -0.15684485730E+03  0.15938280289E+03  0.47000000000E+01 0. -1.
         12    1    5    5    0    0  0.15760185974E+02 -0.14763974532E+02 -0.13061318129E+03  0.13238640992E+03  0.00000000000E+00 0.  1.
        -12    1    5    5    0    0 -0.25470529375E+02  0.24040849783E+02 -0.49654072956E+03  0.49777445338E+03  0.00000000000E+00 0.  1.
<mgrwt>
<rscale>  0 0.12500093E+03</rscale>
<asrwt>0</asrwt>
<pdfrwt beam="1">  1       21 0.56376202E-03 0.12500093E+03</pdfrwt>
<pdfrwt beam="2">  1       21 0.16400004E+00 0.12500093E+03</pdfrwt>
<totfact> 0.21938483E+06</totfact>
</mgrwt>
</event>
<event>
 9    1  0.4458519E-002  0.1250104E+03  0.7818608E-02  0.1235053E+00
         21   -1    0    0  503  502  0.00000000000E+00  0.00000000000E+00  0.12892599562E+02  0.12892599562E+02  0.00000000000E+00 0. -1.
         21   -1    0    0  502  503 -0.00000000000E+00 -0.00000000000E+00 -0.30303452323E+03  0.30303452323E+03  0.00000000000E+00 0. -1.
         25    2    1    2    0    0  0.17763568394E-14 -0.35527136788E-14 -0.29014192367E+03  0.31592712279E+03  0.12501044375E+03 0.  0.
    9000006    2    3    3    0    0  0.12800999485E+02  0.69686808263E+01 -0.12047443848E+03  0.13537561156E+03  0.60000314813E+02 0.  0.
    9000007    2    3    3    0    0 -0.12800999485E+02 -0.69686808263E+01 -0.16966748519E+03  0.18055151124E+03  0.59994704588E+02 0.  0.
          5    1    4    4  501    0 -0.10898798910E+02  0.26385660836E+02 -0.74570080076E+02  0.79986084777E+02  0.47000000000E+01 0.  1.
         -5    1    4    4    0  501  0.23699798395E+02 -0.19416980009E+02 -0.45904358402E+02  0.55389526780E+02  0.47000000000E+01 0.  1.
         12    1    5    5    0    0 -0.27431109431E+02 -0.25191825962E+02 -0.12027907465E+03  0.12591326244E+03  0.00000000000E+00 0. -1.
        -12    1    5    5    0    0  0.14630109946E+02  0.18223145136E+02 -0.49388410542E+02  0.54638248796E+02  0.00000000000E+00 0. -1.
<mgrwt>
<rscale>  0 0.12501044E+03</rscale>
<asrwt>0</asrwt>
<pdfrwt beam="1">  1       21 0.19834771E-02 0.12501044E+03</pdfrwt>
<pdfrwt beam="2">  1       21 0.46620690E-01 0.12501044E+03</pdfrwt>
<totfact> 0.54143495E+06</totfact>
</mgrwt>
</event>
<event>
 9    1  0.4458519E-002  0.1250021E+03  0.7818608E-02  0.1235066E+00
         21   -1    0    0  503  502  0.00000000000E+00  0.00000000000E+00  0.10255471983E+03  0.10255471983E+03  0.00000000000E+00 0.  1.
         21   -1    0    0  502  503 -0.00000000000E+00 -0.00000000000E+00 -0.38090700978E+02  0.38090700978E+02  0.00000000000E+00 0.  1.
         25    2    1    2    0    0  0.17763568394E-14  0.35527136788E-14  0.64464018847E+02  0.14064542080E+03  0.12500209865E+03 0.  0.
    9000006    2    3    3    0    0 -0.20778070435E+01 -0.16487319760E+02  0.38424896606E+02  0.73161785463E+02  0.60000209816E+02 0.  0.
    9000007    2    3    3    0    0  0.20778070435E+01  0.16487319760E+02  0.26039122241E+02  0.67483635341E+02  0.59998801295E+02 0.  0.
          5    1    4    4  501    0 -0.22836519169E+02  0.83842548741E+01  0.30838288285E+02  0.39558720428E+02  0.47000000000E+01 0.  1.
         -5    1    4    4    0  501  0.20758712126E+02 -0.24871574634E+02  0.75866083210E+01  0.33603065034E+02  0.47000000000E+01 0.  1.
         12    1    5    5    0    0  0.13068382513E+02 -0.56274611823E+01 -0.14308230710E+02  0.20178612612E+02  0.00000000000E+00 0.  1.
        -12    1    5    5    0    0 -0.10990575470E+02  0.22114780942E+02  0.40347352951E+02  0.47305022729E+02  0.00000000000E+00 0.  1.
<mgrwt>
<rscale>  0 0.12500210E+03</rscale>
<asrwt>0</asrwt>
<pdfrwt beam="1">  1       21 0.15777649E-01 0.12500210E+03</pdfrwt>
<pdfrwt beam="2">  1       21 0.58601079E-02 0.12500210E+03</pdfrwt>
<totfact> 0.71951315E+06</totfact>
</mgrwt>
</event>
<event>
 9    1  0.4458519E-002  0.1250007E+03  0.7818608E-02  0.1235068E+00
         21   -1    0    0  503  502  0.00000000000E+00  0.00000000000E+00  0.28066749640E+02  0.28066749640E+02  0.00000000000E+00 0.  1.
         21   -1    0    0  502  503 -0.00000000000E+00 -0.00000000000E+00 -0.13917877924E+03  0.13917877924E+03  0.00000000000E+00 0.  1.
         25    2    1    2    0    0 -0.35527136788E-14  0.00000000000E+00 -0.11111202960E+03  0.16724552888E+03  0.12500073523E+03 0.  0.
    9000006    2    3    3    0    0 -0.14222105231E+02  0.94786114587E+01 -0.50506139409E+02  0.80268202733E+02  0.60000015830E+02 0.  0.
    9000007    2    3    3    0    0  0.14222105231E+02 -0.94786114587E+01 -0.60605890191E+02  0.86977326148E+02  0.59998908203E+02 0.  0.
          5    1    4    4  501    0 -0.36429606269E+02  0.11199885393E+02 -0.23808902269E+02  0.45183044087E+02  0.47000000000E+01 0.  1.
         -5    1    4    4    0  501  0.22207501038E+02 -0.17212739341E+01 -0.26697237140E+02  0.35085158646E+02  0.47000000000E+01 0.  1.
         12    1    5    5    0    0  0.35972475839E+02 -0.12775100139E+02 -0.48969593852E+02  0.62090605759E+02  0.00000000000E+00 0. -1.
        -12    1    5    5    0    0 -0.21750370608E+02  0.32964886806E+01 -0.11636296339E+02  0.24886720388E+02  0.00000000000E+00 0. -1.
<mgrwt>
<rscale>  0 0.12500074E+03</rscale>
<asrwt>0</asrwt>
<pdfrwt beam="1">  1       21 0.43179615E-02 0.12500074E+03</pdfrwt>
<pdfrwt beam="2">  1       21 0.21412120E-01 0.12500074E+03</pdfrwt>
<totfact> 0.68643547E+06</totfact>
</mgrwt>
</event>
<event>
 9    1  0.4458519E-002  0.1250024E+03  0.7818608E-02  0.1235065E+00
         21   -1    0    0  503  502  0.00000000000E+00  0.00000000000E+00  0.66928706761E+03  0.66928706761E+03  0.00000000000E+00 0.  1.
         21   -1    0    0  502  503 -0.00000000000E+00 -0.00000000000E+00 -0.58366628934E+01  0.58366628934E+01  0.00000000000E+00 0.  1.
         25    2    1    2    0    0  0.17763568394E-14 -0.17763568394E-14  0.66345040471E+03  0.67512373050E+03  0.12500244786E+03 0.  0.
    9000006    2    3    3    0    0  0.33664988544E+01 -0.12515237872E+02  0.26817722357E+03  0.27511264668E+03  0.59999838574E+02 0.  0.
    9000007    2    3    3    0    0 -0.33664988544E+01  0.12515237872E+02  0.39527318114E+03  0.40001108382E+03  0.60000124609E+02 0.  0.
          5    1    4    4  501    0 -0.12703689685E+02 -0.15464006941E+02  0.30223037430E+02  0.36551897814E+02  0.47000000000E+01 0.  1.
         -5    1    4    4    0  501  0.16070188540E+02  0.29487690692E+01  0.23795418614E+03  0.23856074887E+03  0.47000000000E+01 0.  1.
         12    1    5    5    0    0 -0.21656834805E+02  0.51037803568E+01  0.34895823350E+03  0.34966686402E+03  0.00000000000E+00 0.  1.
        -12    1    5    5    0    0  0.18290335950E+02  0.74114575155E+01  0.46314947638E+02  0.50344219791E+02  0.00000000000E+00 0.  1.
<mgrwt>
<rscale>  0 0.12500245E+03</rscale>
<asrwt>0</asrwt>
<pdfrwt beam="1">  1       21 0.10296718E+00 0.12500245E+03</pdfrwt>
<pdfrwt beam="2">  1       21 0.89794866E-03 0.12500245E+03</pdfrwt>
<totfact> 0.33889403E+06</totfact>
</mgrwt>
</event>
<event>
 9    1  0.4458519E-002  0.1250037E+03  0.7818608E-02  0.1235064E+00
         21   -1    0    0  503  502  0.00000000000E+00  0.00000000000E+00  0.52827656188E+02  0.52827656188E+02  0.00000000000E+00 0. -1.
         21   -1    0    0  502  503 -0.00000000000E+00 -0.00000000000E+00 -0.73947644430E+02  0.73947644430E+02  0.00000000000E+00 0. -1.
         25    2    1    2    0    0  0.35527136788E-14  0.00000000000E+00 -0.21119988241E+02  0.12677530062E+03  0.12500369172E+03 0.  0.
    9000006    2    3    3    0    0  0.12908636918E+02  0.83233167839E+01 -0.19084372222E+02  0.64808884256E+02  0.60000564214E+02 0.  0.
    9000007    2    3    3    0    0 -0.12908636918E+02 -0.83233167839E+01 -0.20356160192E+01  0.61966416362E+02  0.59998187596E+02 0.  0.
          5    1    4    4  501    0  0.23644420320E+02  0.22528204605E+02 -0.28969732348E+02  0.43908017574E+02  0.47000000000E+01 0. -1.
         -5    1    4    4    0  501 -0.10735783402E+02 -0.14204887821E+02  0.98853601254E+01  0.20900866682E+02  0.47000000000E+01 0. -1.
         12    1    5    5    0    0  0.38868494370E+01  0.22288596423E+02  0.10400695589E+02  0.24901076238E+02  0.00000000000E+00 0. -1.
        -12    1    5    5    0    0 -0.16795486355E+02 -0.30611913207E+02 -0.12436311608E+02  0.37065340124E+02  0.00000000000E+00 0. -1.
<mgrwt>
<rscale>  0 0.12500369E+03</rscale>
<asrwt>0</asrwt>
<pdfrwt beam="1">  1       21 0.81273317E-02 0.12500369E+03</pdfrwt>
<pdfrwt beam="2">  1       21 0.11376561E-01 0.12500369E+03</pdfrwt>
<totfact> 0.73792804E+06</totfact>
</mgrwt>
</event>
<event>
 9    1  0.4458519E-002  0.1250009E+03  0.7818608E-02  0.1235068E+00
         21   -1    0    0  503  502  0.00000000000E+00  0.00000000000E+00  0.87680674213E+02  0.87680674213E+02  0.00000000000E+00 0.  1.
         21   -1    0    0  502  503 -0.00000000000E+00 -0.00000000000E+00 -0.44551511951E+02  0.44551511951E+02  0.00000000000E+00 0.  1.
         25    2    1    2    0    0  0.35527136788E-14  0.88817841970E-15  0.43129162262E+02  0.13223218616E+03  0.12500090568E+03 0.  0.
    9000006    2    3    3    0    0  0.12070967093E+02 -0.24864271221E+01  0.84150569758E+01  0.61825324797E+02  0.59997225235E+02 0.  0.
    9000007    2    3    3    0    0 -0.12070967093E+02  0.24864271221E+01  0.34714105286E+02  0.70406861367E+02  0.60001387112E+02 0.  0.
          5    1    4    4  501    0  0.29357733745E+02 -0.14651574361E+02  0.18476559870E+02  0.37947574712E+02  0.47000000000E+01 0. -1.
         -5    1    4    4    0  501 -0.17286766651E+02  0.12165147239E+02 -0.10061502894E+02  0.23877750085E+02  0.47000000000E+01 0. -1.
         12    1    5    5    0    0  0.61464585064E+01  0.93613453642E+01 -0.14010178711E+02  0.17935965174E+02  0.00000000000E+00 0.  1.
        -12    1    5    5    0    0 -0.18217425600E+02 -0.68749182421E+01  0.48724283997E+02  0.52470896193E+02  0.00000000000E+00 0.  1.
<mgrwt>
<rscale>  0 0.12500091E+03</rscale>
<asrwt>0</asrwt>
<pdfrwt beam="1">  1       21 0.13489334E-01 0.12500091E+03</pdfrwt>
<pdfrwt beam="2">  1       21 0.68540788E-02 0.12500091E+03</pdfrwt>
<totfact> 0.73063414E+06</totfact>
</mgrwt>
</event>
<event>
 9    1  0.4458519E-002  0.1249981E+03  0.7818608E-02  0.1235072E+00
         21   -1    0    0  503  502  0.00000000000E+00  0.00000000000E+00  0.85264254138E+03  0.85264254138E+03  0.00000000000E+00 0.  1.
         21   -1    0    0  502  503 -0.00000000000E+00 -0.00000000000E+00 -0.45812031420E+01  0.45812031420E+01  0.00000000000E+00 0.  1.
         25    2    1    2    0    0 -0.35527136788E-14  0.00000000000E+00  0.84806133824E+03  0.85722374452E+03  0.12499805902E+03 0.  0.
    9000006    2    3    3    0    0  0.16154991456E+01 -0.98619584284E+01  0.52251581836E+03  0.52604431867E+03  0.59999805932E+02 0.  0.
    9000007    2    3    3    0    0 -0.16154991456E+01  0.98619584284E+01  0.32554551988E+03  0.33117942585E+03  0.60000487752E+02 0.  0.
          5    1    4    4  501    0 -0.16039197013E+02  0.76958789247E+01  0.42141550707E+03  0.42181702430E+03  0.47000000000E+01 0. -1.
         -5    1    4    4    0  501  0.17654696158E+02 -0.17557837353E+02  0.10110031129E+03  0.10422729437E+03  0.47000000000E+01 0. -1.
         12    1    5    5    0    0  0.18677791953E+02  0.13875937144E+02  0.53403855868E+02  0.58252668312E+02  0.00000000000E+00 0.  1.
        -12    1    5    5    0    0 -0.20293291099E+02 -0.40139787155E+01  0.27214166401E+03  0.27292675754E+03  0.00000000000E+00 0.  1.
<mgrwt>
<rscale>  0 0.12499806E+03</rscale>
<asrwt>0</asrwt>
<pdfrwt beam="1">  1       21 0.13117565E+00 0.12499806E+03</pdfrwt>
<pdfrwt beam="2">  1       21 0.70480116E-03 0.12499806E+03</pdfrwt>
<totfact> 0.27553655E+06</totfact>
</mgrwt>
</event>
<event>
 9    1  0.4458519E-002  0.1249979E+03  0.7818608E-02  0.1235073E+00
         21   -1    0    0  503  502  0.00000000000E+00  0.00000000000E+00  0.25643124006E+02  0.25643124006E+02  0.00000000000E+00 0.  1.
         21   -1    0    0  502  503 -0.00000000000E+00 -0.00000000000E+00 -0.15232616971E+03  0.15232616971E+03  0.00000000000E+00 0.  1.
         25    2    1    2    0    0 -0.88817841970E-15 -0.35527136788E-14 -0.12668304571E+03  0.17796929372E+03  0.12499790173E+03 0.  0.
    9000006    2    3    3    0    0 -0.53018865932E+01  0.16675750642E+02 -0.63227031862E+02  0.88902297469E+02  0.59998085606E+02 0.  0.
    9000007    2    3    3    0    0  0.53018865932E+01 -0.16675750642E+02 -0.63456013844E+02  0.89066996247E+02  0.60000612219E+02 0.  0.
          5    1    4    4  501    0 -0.17591895684E+01  0.35332451396E+02 -0.18749756716E+02  0.40312780188E+02  0.47000000000E+01 0. -1.
         -5    1    4    4    0  501 -0.35426970248E+01 -0.18656700754E+02 -0.44477275146E+02  0.48589517281E+02  0.47000000000E+01 0. -1.
         12    1    5    5    0    0 -0.64898280458E+01 -0.37342079018E+02 -0.45736476473E+02  0.59400117960E+02  0.00000000000E+00 0.  1.
        -12    1    5    5    0    0  0.11791714639E+02  0.20666328377E+02 -0.17719537371E+02  0.29666878287E+02  0.00000000000E+00 0.  1.
<mgrwt>
<rscale>  0 0.12499790E+03</rscale>
<asrwt>0</asrwt>
<pdfrwt beam="1">  1       21 0.39450961E-02 0.12499790E+03</pdfrwt>
<pdfrwt beam="2">  1       21 0.23434794E-01 0.12499790E+03</pdfrwt>
<totfact> 0.67388847E+06</totfact>
</mgrwt>
</event>
<event>
 9    1  0.4458519E-002  0.1249981E+03  0.7818608E-02  0.1235072E+00
         21   -1    0    0  503  502  0.00000000000E+00  0.00000000000E+00  0.41200711196E+02  0.41200711196E+02  0.00000000000E+00 0.  1.
         21   -1    0    0  502  503 -0.00000000000E+00 -0.00000000000E+00 -0.94807368878E+02  0.94807368878E+02  0.00000000000E+00 0.  1.
         25    2    1    2    0    0  0.00000000000E+00  0.00000000000E+00 -0.53606657682E+02  0.13600808007E+03  0.12499809638E+03 0.  0.
    9000006    2    3    3    0    0  0.22499788204E+01 -0.12359467673E+02 -0.40052357555E+02  0.73226027966E+02  0.60000341499E+02 0.  0.
    9000007    2    3    3    0    0 -0.22499788204E+01  0.12359467673E+02 -0.13554300126E+02  0.62782052108E+02  0.60000401408E+02 0.  0.
          5    1    4    4  501    0 -0.12767340404E+02 -0.31912196464E+02 -0.15100924352E+02  0.37835448728E+02  0.47000000000E+01 0.  1.
         -5    1    4    4    0  501  0.15017319225E+02  0.19552728791E+02 -0.24951433203E+02  0.35390579237E+02  0.47000000000E+01 0.  1.
         12    1    5    5    0    0 -0.93995567303E+01  0.15138185533E+02 -0.35398397686E+02  0.39630327865E+02  0.00000000000E+00 0.  1.
        -12    1    5    5    0    0  0.71495779099E+01 -0.27787178598E+01  0.21844097560E+02  0.23151724243E+02  0.00000000000E+00 0.  1.
<mgrwt>
<rscale>  0 0.12499810E+03</rscale>
<asrwt>0</asrwt>
<pdfrwt beam="1">  1       21 0.63385710E-02 0.12499810E+03</pdfrwt>
<pdfrwt beam="2">  1       21 0.14585749E-01 0.12499810E+03</pdfrwt>
<totfact> 0.72566793E+06</totfact>
</mgrwt>
</event>
<event>
 9    1  0.4458519E-002  0.1250004E+03  0.7818608E-02  0.1235069E+00
         21   -1    0    0  503  502  0.00000000000E+00  0.00000000000E+00  0.42795839902E+02  0.42795839902E+02  0.00000000000E+00 0.  1.
         21   -1    0    0  502  503 -0.00000000000E+00 -0.00000000000E+00 -0.91276991779E+02  0.91276991779E+02  0.00000000000E+00 0.  1.
         25    2    1    2    0    0  0.35527136788E-14 -0.17763568394E-14 -0.48481151877E+02  0.13407283168E+03  0.12500040843E+03 0.  0.
    9000006    2    3    3    0    0 -0.14243404507E+02 -0.89610176107E+01 -0.19041268523E+02  0.65153482638E+02  0.59993599529E+02 0.  0.
    9000007    2    3    3    0    0  0.14243404507E+02  0.89610176107E+01 -0.29439883354E+02  0.68919349042E+02  0.59999962766E+02 0.  0.
          5    1    4    4  501    0 -0.34169392769E+02 -0.18210263110E+02 -0.68718522955E+01  0.39603957362E+02  0.47000000000E+01 0.  1.
         -5    1    4    4    0  501  0.19925988262E+02  0.92492454997E+01 -0.12169416228E+02  0.25549525277E+02  0.47000000000E+01 0.  1.
         12    1    5    5    0    0  0.34195298754E+02  0.18612473797E+02 -0.25135637909E+02  0.46341589645E+02  0.00000000000E+00 0.  1.
        -12    1    5    5    0    0 -0.19951894247E+02 -0.96514561868E+01 -0.43042454451E+01  0.22577759398E+02  0.00000000000E+00 0.  1.
<mgrwt>
<rscale>  0 0.12500041E+03</rscale>
<asrwt>0</asrwt>
<pdfrwt beam="1">  1       21 0.65839754E-02 0.12500041E+03</pdfrwt>
<pdfrwt beam="2">  1       21 0.14042614E-01 0.12500041E+03</pdfrwt>
<totfact> 0.72818712E+06</totfact>
</mgrwt>
</event>
<event>
 9    1  0.4458519E-002  0.1249987E+03  0.7818608E-02  0.1235071E+00
         21   -1    0    0  503  502  0.00000000000E+00  0.00000000000E+00  0.10289059227E+03  0.10289059227E+03  0.00000000000E+00 0.  1.
         21   -1    0    0  502  503 -0.00000000000E+00 -0.00000000000E+00 -0.37964269837E+02  0.37964269837E+02  0.00000000000E+00 0.  1.
         25    2    1    2    0    0  0.35527136788E-14  0.00000000000E+00  0.64926322430E+02  0.14085486210E+03  0.12499865933E+03 0.  0.
    9000006    2    3    3    0    0  0.16141849686E+02  0.66868001567E+01  0.31702778535E+02  0.70073563639E+02  0.59999712888E+02 0.  0.
    9000007    2    3    3    0    0 -0.16141849686E+02 -0.66868001567E+01  0.33223543895E+02  0.70781298465E+02  0.60007630647E+02 0.  0.
          5    1    4    4  501    0 -0.21734074679E+02  0.33697707831E+01  0.19779564908E+02  0.29950735304E+02  0.47000000000E+01 0.  1.
         -5    1    4    4    0  501  0.37875924366E+02  0.33170293736E+01  0.11923213627E+02  0.40122828335E+02  0.47000000000E+01 0.  1.
         12    1    5    5    0    0 -0.22044639584E+02 -0.24019050975E+02  0.39689956375E+02  0.51363153926E+02  0.00000000000E+00 0.  1.
        -12    1    5    5    0    0  0.59027898977E+01  0.17332250818E+02 -0.64664124799E+01  0.19418144540E+02  0.00000000000E+00 0.  1.
<mgrwt>
<rscale>  0 0.12499866E+03</rscale>
<asrwt>0</asrwt>
<pdfrwt beam="1">  1       21 0.15829322E-01 0.12499866E+03</pdfrwt>
<pdfrwt beam="2">  1       21 0.58406569E-02 0.12499866E+03</pdfrwt>
<totfact> 0.71930360E+06</totfact>
</mgrwt>
</event>
<event>
 9    1  0.4458519E-002  0.1249990E+03  0.7818608E-02  0.1235071E+00
         21   -1    0    0  503  502  0.00000000000E+00  0.00000000000E+00  0.57928172747E+02  0.57928172747E+02  0.00000000000E+00 0. -1.
         21   -1    0    0  502  503 -0.00000000000E+00 -0.00000000000E+00 -0.67431573930E+02  0.67431573930E+02  0.00000000000E+00 0. -1.
         25    2    1    2    0    0  0.00000000000E+00  0.00000000000E+00 -0.95034011833E+01  0.12535974668E+03  0.12499900581E+03 0.  0.
    9000006    2    3    3    0    0 -0.88717807256E+01 -0.12808519322E+02 -0.12736044694E+02  0.63285474021E+02  0.60000647723E+02 0.  0.
    9000007    2    3    3    0    0  0.88717807256E+01  0.12808519322E+02  0.32326435105E+01  0.62074272656E+02  0.59999989011E+02 0.  0.
          5    1    4    4  501    0  0.19108810333E+02 -0.17352090697E+02 -0.20755502920E+02  0.33453289604E+02  0.47000000000E+01 0. -1.
         -5    1    4    4    0  501 -0.27980591059E+02  0.45435713752E+01  0.80194582259E+01  0.29832184417E+02  0.47000000000E+01 0. -1.
         12    1    5    5    0    0 -0.13708834253E+02  0.27517803380E+01  0.25320554818E+02  0.28924642225E+02  0.00000000000E+00 0. -1.
        -12    1    5    5    0    0  0.22580614978E+02  0.10056738984E+02 -0.22087911307E+02  0.33149630431E+02  0.00000000000E+00 0. -1.
<mgrwt>
<rscale>  0 0.12499901E+03</rscale>
<asrwt>0</asrwt>
<pdfrwt beam="1">  1       21 0.89120266E-02 0.12499901E+03</pdfrwt>
<pdfrwt beam="2">  1       21 0.10374088E-01 0.12499901E+03</pdfrwt>
<totfact> 0.73996888E+06</totfact>
</mgrwt>
</event>
<event>
 9    1  0.4458519E-002  0.1250004E+03  0.7818608E-02  0.1235069E+00
         21   -1    0    0  503  502  0.00000000000E+00  0.00000000000E+00  0.10077376834E+02  0.10077376834E+02  0.00000000000E+00 0.  1.
         21   -1    0    0  502  503 -0.00000000000E+00 -0.00000000000E+00 -0.38762812197E+03  0.38762812197E+03  0.00000000000E+00 0.  1.
         25    2    1    2    0    0 -0.17763568394E-14 -0.35527136788E-14 -0.37755074513E+03  0.39770549880E+03  0.12500039450E+03 0.  0.
    9000006    2    3    3    0    0 -0.14203041706E+02  0.52100109311E+00 -0.22125089497E+03  0.22968232600E+03  0.60000120983E+02 0.  0.
    9000007    2    3    3    0    0  0.14203041706E+02 -0.52100109311E+00 -0.15629985017E+03  0.16802317280E+03  0.60001213318E+02 0.  0.
          5    1    4    4  501    0  0.89103348887E+01 -0.19063225959E+02 -0.15720966218E+03  0.15868134275E+03  0.47000000000E+01 0. -1.
         -5    1    4    4    0  501 -0.23113376595E+02  0.19584227052E+02 -0.64041232785E+02  0.71000983257E+02  0.47000000000E+01 0. -1.
         12    1    5    5    0    0 -0.13232688734E+02  0.19379842271E+02 -0.35472660989E+02  0.42532246769E+02  0.00000000000E+00 0. -1.
        -12    1    5    5    0    0  0.27435730441E+02 -0.19900843364E+02 -0.12082718918E+03  0.12549092603E+03  0.00000000000E+00 0. -1.
<mgrwt>
<rscale>  0 0.12500039E+03</rscale>
<asrwt>0</asrwt>
<pdfrwt beam="1">  1       21 0.15503655E-02 0.12500039E+03</pdfrwt>
<pdfrwt beam="2">  1       21 0.59635103E-01 0.12500039E+03</pdfrwt>
<totfact> 0.48193437E+06</totfact>
</mgrwt>
</event>
<event>
 9    1  0.4458519E-002  0.1250009E+03  0.7818608E-02  0.1235068E+00
         21   -1    0    0  503  502  0.00000000000E+00  0.00000000000E+00  0.18743372485E+03  0.18743372485E+03  0.00000000000E+00 0.  1.
         21   -1    0    0  502  503 -0.00000000000E+00 -0.00000000000E+00 -0.20841004449E+02  0.20841004449E+02  0.00000000000E+00 0.  1.
         25    2    1    2    0    0  0.00000000000E+00  0.17763568394E-14  0.16659272040E+03  0.20827472930E+03  0.12500091349E+03 0.  0.
    9000006    2    3    3    0    0  0.10501126664E+02 -0.11677715639E+02  0.96177379569E+02  0.11444006240E+03  0.59998306964E+02 0.  0.
    9000007    2    3    3    0    0 -0.10501126664E+02  0.11677715639E+02  0.70415340830E+02  0.93834666892E+02  0.59999848190E+02 0.  0.
          5    1    4    4  501    0 -0.14540256933E+02  0.17522634979E+02  0.34790525956E+02  0.41844145403E+02  0.47000000000E+01 0. -1.
         -5    1    4    4    0  501  0.25041383597E+02 -0.29200350617E+02  0.61386853613E+02  0.72595917001E+02  0.47000000000E+01 0. -1.
         12    1    5    5    0    0 -0.32344845204E+02  0.20600568276E+02  0.41297970836E+02  0.56356852465E+02  0.00000000000E+00 0.  1.
        -12    1    5    5    0    0  0.21843718540E+02 -0.89228526376E+01  0.29117369995E+02  0.37477814428E+02  0.00000000000E+00 0.  1.
<mgrwt>
<rscale>  0 0.12500091E+03</rscale>
<asrwt>0</asrwt>
<pdfrwt beam="1">  1       21 0.28835957E-01 0.12500091E+03</pdfrwt>
<pdfrwt beam="2">  1       21 0.32063085E-02 0.12500091E+03</pdfrwt>
<totfact> 0.64040033E+06</totfact>
</mgrwt>
</event>
<event>
 9    1  0.4458519E-002  0.1250005E+03  0.7818608E-02  0.1235069E+00
         21   -1    0    0  503  502  0.00000000000E+00  0.00000000000E+00  0.11309472064E+04  0.11309472064E+04  0.00000000000E+00 0. -1.
         21   -1    0    0  502  503 -0.00000000000E+00 -0.00000000000E+00 -0.34539902408E+01  0.34539902408E+01  0.00000000000E+00 0. -1.
         25    2    1    2    0    0  0.71054273576E-14 -0.35527136788E-14  0.11274932161E+04  0.11344011966E+04  0.12500048982E+03 0.  0.
    9000006    2    3    3    0    0  0.16680146913E+02 -0.52903470403E+01  0.56345912667E+03  0.56691496038E+03  0.60001414980E+02 0.  0.
    9000007    2    3    3    0    0 -0.16680146913E+02  0.52903470403E+01  0.56403408944E+03  0.56748623622E+03  0.59999659741E+02 0.  0.
          5    1    4    4  501    0  0.32087597160E+02 -0.14871170810E+02  0.48239069178E+03  0.48370821280E+03  0.47000000000E+01 0. -1.
         -5    1    4    4    0  501 -0.15407450246E+02  0.95808237697E+01  0.81068434889E+02  0.83206747578E+02  0.47000000000E+01 0. -1.
         12    1    5    5    0    0  0.25968983732E+00 -0.26056849405E+02  0.19438952301E+03  0.19612830876E+03  0.00000000000E+00 0.  1.
        -12    1    5    5    0    0 -0.16939836751E+02  0.31347196445E+02  0.36964456643E+03  0.37135792746E+03  0.00000000000E+00 0.  1.
<mgrwt>
<rscale>  0 0.12500049E+03</rscale>
<asrwt>0</asrwt>
<pdfrwt beam="1">  1       21 0.17399158E+00 0.12500049E+03</pdfrwt>
<pdfrwt beam="2">  1       21 0.53138402E-03 0.12500049E+03</pdfrwt>
<totfact> 0.20501342E+06</totfact>
</mgrwt>
</event>
<event>
 9    1  0.4458519E-002  0.1250008E+03  0.7818608E-02  0.1235068E+00
         21   -1    0    0  503  502  0.00000000000E+00  0.00000000000E+00  0.14706382561E+03  0.14706382561E+03  0.00000000000E+00 0. -1.
         21   -1    0    0  502  503 -0.00000000000E+00 -0.00000000000E+00 -0.26561929456E+02  0.26561929456E+02  0.00000000000E+00 0. -1.
         25    2    1    2    0    0 -0.17763568394E-14 -0.35527136788E-14  0.12050189615E+03  0.17362575507E+03  0.12500078338E+03 0.  0.
    9000006    2    3    3    0    0 -0.33840119240E+01 -0.15328693620E+02  0.49499179394E+02  0.79350670509E+02  0.59999498037E+02 0.  0.
    9000007    2    3    3    0    0  0.33840119240E+01  0.15328693620E+02  0.71002716761E+02  0.94275084558E+02  0.59999878302E+02 0.  0.
          5    1    4    4  501    0  0.66282211222E+01  0.51166525605E+01 -0.10963193641E+02  0.14573780000E+02  0.47000000000E+01 0.  1.
         -5    1    4    4    0  501 -0.10012233046E+02 -0.20445346181E+02  0.60462373035E+02  0.64776890509E+02  0.47000000000E+01 0.  1.
         12    1    5    5    0    0 -0.25040601919E+02 -0.43811497677E+01  0.42192352596E+02  0.49258713294E+02  0.00000000000E+00 0.  1.
        -12    1    5    5    0    0  0.28424613843E+02  0.19709843388E+02  0.28810364164E+02  0.45016371264E+02  0.00000000000E+00 0.  1.
<mgrwt>
<rscale>  0 0.12500078E+03</rscale>
<asrwt>0</asrwt>
<pdfrwt beam="1">  1       21 0.22625203E-01 0.12500078E+03</pdfrwt>
<pdfrwt beam="2">  1       21 0.40864508E-02 0.12500078E+03</pdfrwt>
<totfact> 0.67889051E+06</totfact>
</mgrwt>
</event>
<event>
 9    1  0.4458519E-002  0.1249985E+03  0.7818608E-02  0.1235072E+00
         21   -1    0    0  503  502  0.00000000000E+00  0.00000000000E+00  0.16901862092E+04  0.16901862092E+04  0.00000000000E+00 0. -1.
         21   -1    0    0  502  503 -0.00000000000E+00 -0.00000000000E+00 -0.23110818504E+01  0.23110818504E+01  0.00000000000E+00 0. -1.
         25    2    1    2    0    0 -0.17763568394E-14  0.71054273576E-14  0.16878751274E+04  0.16924972911E+04  0.12499853874E+03 0.  0.
    9000006    2    3    3    0    0 -0.13439171536E+02  0.11084583419E+02  0.86577654249E+03  0.86802804999E+03  0.60001622678E+02 0.  0.
    9000007    2    3    3    0    0  0.13439171536E+02 -0.11084583419E+02  0.82209858490E+03  0.82446924110E+03  0.59999724200E+02 0.  0.
          5    1    4    4  501    0 -0.26431129964E+02  0.23640160476E+02  0.33128974173E+03  0.33321531297E+03  0.47000000000E+01 0.  1.
         -5    1    4    4    0  501  0.12991958428E+02 -0.12555577057E+02  0.53448680076E+03  0.53481273703E+03  0.47000000000E+01 0.  1.
         12    1    5    5    0    0  0.15096798308E+02 -0.34282832769E+02  0.40722824548E+03  0.40894751480E+03  0.00000000000E+00 0. -1.
        -12    1    5    5    0    0 -0.16576267721E+01  0.23198249349E+02  0.41487033942E+03  0.41552172630E+03  0.00000000000E+00 0. -1.
<mgrwt>
<rscale>  0 0.12499854E+03</rscale>
<asrwt>0</asrwt>
<pdfrwt beam="1">  1       21 0.26002766E+00 0.12499854E+03</pdfrwt>
<pdfrwt beam="2">  1       21 0.35555240E-03 0.12499854E+03</pdfrwt>
<totfact> 0.11364250E+06</totfact>
</mgrwt>
</event>
<event>
 9    1  0.4458519E-002  0.1249841E+03  0.7818608E-02  0.1235094E+00
         21   -1    0    0  503  502  0.00000000000E+00  0.00000000000E+00  0.10084660671E+04  0.10084660671E+04  0.00000000000E+00 0. -1.
         21   -1    0    0  502  503 -0.00000000000E+00 -0.00000000000E+00 -0.38724720951E+01  0.38724720951E+01  0.00000000000E+00 0. -1.
         25    2    1    2    0    0  0.26645352591E-14  0.00000000000E+00  0.10045935950E+04  0.10123385392E+04  0.12498410625E+03 0.  0.
    9000006    2    3    3    0    0  0.19328267593E+01  0.43937260473E+01  0.63836424380E+03  0.64119570206E+03  0.59999832770E+02 0.  0.
    9000007    2    3    3    0    0 -0.19328267593E+01 -0.43937260473E+01  0.36622935118E+03  0.37114283711E+03  0.60000226860E+02 0.  0.
          5    1    4    4  501    0  0.76784197101E+01  0.13548638533E+01  0.13517281323E+02  0.16297259882E+02  0.47000000000E+01 0. -1.
         -5    1    4    4    0  501 -0.57455929508E+01  0.30388621939E+01  0.62484696248E+03  0.62489844218E+03  0.47000000000E+01 0. -1.
         12    1    5    5    0    0  0.18510904028E+02 -0.19466042021E+02  0.94938386809E+02  0.98665483579E+02  0.00000000000E+00 0. -1.
        -12    1    5    5    0    0 -0.20443730787E+02  0.15072315973E+02  0.27129096437E+03  0.27247735353E+03  0.00000000000E+00 0. -1.
<mgrwt>
<rscale>  0 0.12498411E+03</rscale>
<asrwt>0</asrwt>
<pdfrwt beam="1">  1       21 0.15514842E+00 0.12498411E+03</pdfrwt>
<pdfrwt beam="2">  1       21 0.59576574E-03 0.12498411E+03</pdfrwt>
<totfact> 0.23322130E+06</totfact>
</mgrwt>
</event>
<event>
 9    1  0.4458519E-002  0.1250021E+03  0.7818608E-02  0.1235066E+00
         21   -1    0    0  503  502  0.00000000000E+00  0.00000000000E+00  0.25497327449E+01  0.25497327449E+01  0.00000000000E+00 0. -1.
         21   -1    0    0  502  503 -0.00000000000E+00 -0.00000000000E+00 -0.15320736164E+04  0.15320736164E+04  0.00000000000E+00 0. -1.
         25    2    1    2    0    0 -0.17763568394E-14 -0.35527136788E-14 -0.15295238836E+04  0.15346233491E+04  0.12500205226E+03 0.  0.
    9000006    2    3    3    0    0 -0.73584555853E+01 -0.12658484609E+02 -0.64699812183E+03  0.64993914839E+03  0.59999523772E+02 0.  0.
    9000007    2    3    3    0    0  0.73584555853E+01  0.12658484609E+02 -0.88252576180E+03  0.88468420073E+03  0.60000255707E+02 0.  0.
          5    1    4    4  501    0 -0.11163008778E+02 -0.14571865288E+01 -0.25068851342E+02  0.27879624552E+02  0.47000000000E+01 0.  1.
         -5    1    4    4    0  501  0.38045531925E+01 -0.11201298080E+02 -0.62192927049E+03  0.62205952384E+03  0.47000000000E+01 0.  1.
         12    1    5    5    0    0 -0.25477880074E+02  0.34592538440E+01 -0.27400001855E+03  0.27520374085E+03  0.00000000000E+00 0. -1.
        -12    1    5    5    0    0  0.32836335660E+02  0.91992307646E+01 -0.60852574325E+03  0.60948045988E+03  0.00000000000E+00 0. -1.
<mgrwt>
<rscale>  0 0.12500205E+03</rscale>
<asrwt>0</asrwt>
<pdfrwt beam="1">  1       21 0.39226747E-03 0.12500205E+03</pdfrwt>
<pdfrwt beam="2">  1       21 0.23570309E+00 0.12500205E+03</pdfrwt>
<totfact> 0.13486467E+06</totfact>
</mgrwt>
</event>
<event>
 8    1  0.4458519E-002  0.1248663E+03  0.7818608E-02  0.1235278E+00
         21   -1    0    0  503  502  0.00000000000E+00  0.00000000000E+00  0.17072790752E+02  0.17072790752E+02  0.00000000000E+00 0. -1.
         21   -1    0    0  502  503 -0.00000000000E+00 -0.00000000000E+00 -0.22831039075E+03  0.22831039075E+03  0.00000000000E+00 0. -1.
    9000006    2    1    2    0    0 -0.43121025372E+01  0.59219638732E+01 -0.13633440302E+03  0.14913323197E+03  0.59999896229E+02 0.  0.
    9000007    2    1    2    0    0  0.43121025372E+01 -0.59219638732E+01 -0.74903196973E+02  0.96249949524E+02  0.59999166513E+02 0.  0.
          5    1    3    3  501    0  0.23801363552E+02  0.78915081425E+01 -0.98335898365E+02  0.10159143524E+03  0.47000000000E+01 0. -1.
         -5    1    3    3    0  501 -0.28113466090E+02 -0.19695442694E+01 -0.37998504657E+02  0.47541796730E+02  0.47000000000E+01 0. -1.
         12    1    4    4    0    0 -0.22899120942E+02 -0.17258561417E+02 -0.50097834319E+02  0.57723657936E+02  0.00000000000E+00 0.  1.
        -12    1    4    4    0    0  0.27211223480E+02  0.11336597543E+02 -0.24805362655E+02  0.38526291588E+02  0.00000000000E+00 0.  1.
<mgrwt>
<rscale>  0 0.12486626E+03</rscale>
<asrwt>0</asrwt>
<pdfrwt beam="1">  1       21 0.26265834E-02 0.12486626E+03</pdfrwt>
<pdfrwt beam="2">  1       21 0.35124673E-01 0.12486626E+03</pdfrwt>
<totfact> 0.60519453E+06</totfact>
</mgrwt>
</event>
<event>
 9    1  0.4458519E-002  0.1249982E+03  0.7818608E-02  0.1235072E+00
         21   -1    0    0  503  502  0.00000000000E+00  0.00000000000E+00  0.45886199969E+02  0.45886199969E+02  0.00000000000E+00 0. -1.
         21   -1    0    0  502  503 -0.00000000000E+00 -0.00000000000E+00 -0.85126578401E+02  0.85126578401E+02  0.00000000000E+00 0. -1.
         25    2    1    2    0    0  0.00000000000E+00  0.00000000000E+00 -0.39240378431E+02  0.13101277837E+03  0.12499816317E+03 0.  0.
    9000006    2    3    3    0    0 -0.14593632225E+02  0.24555774412E+00 -0.29737038883E+02  0.68536610688E+02  0.59999509356E+02 0.  0.
    9000007    2    3    3    0    0  0.14593632225E+02 -0.24555774412E+00 -0.95033395482E+01  0.62476167682E+02  0.59999363876E+02 0.  0.
          5    1    4    4  501    0 -0.30465262543E+02  0.18986121056E+02 -0.21995279047E+02  0.42361389436E+02  0.47000000000E+01 0. -1.
         -5    1    4    4    0  501  0.15871630318E+02 -0.18740563312E+02 -0.77417598364E+01  0.26175221252E+02  0.47000000000E+01 0. -1.
         12    1    5    5    0    0  0.28844832720E+02 -0.19736821502E+02  0.33704356838E+01  0.35113050770E+02  0.00000000000E+00 0.  1.
        -12    1    5    5    0    0 -0.14251200495E+02  0.19491263758E+02 -0.12873775232E+02  0.27363116912E+02  0.00000000000E+00 0.  1.
<mgrwt>
<rscale>  0 0.12499816E+03</rscale>
<asrwt>0</asrwt>
<pdfrwt beam="1">  1       21 0.70594154E-02 0.12499816E+03</pdfrwt>
<pdfrwt beam="2">  1       21 0.13096397E-01 0.12499816E+03</pdfrwt>
<totfact> 0.73232381E+06</totfact>
</mgrwt>
</event>
<event>
 9    1  0.4458519E-002  0.1250000E+03  0.7818608E-02  0.1235069E+00
         21   -1    0    0  503  502  0.00000000000E+00  0.00000000000E+00  0.10219591890E+02  0.10219591890E+02  0.00000000000E+00 0.  1.
         21   -1    0    0  502  503 -0.00000000000E+00 -0.00000000000E+00 -0.38223126058E+03  0.38223126058E+03  0.00000000000E+00 0.  1.
         25    2    1    2    0    0  0.00000000000E+00 -0.17763568394E-14 -0.37201166869E+03  0.39245085247E+03  0.12499995985E+03 0.  0.
    9000006    2    3    3    0    0  0.49194482613E+01 -0.18998936345E-01 -0.13325944473E+03  0.14622617688E+03  0.59998448836E+02 0.  0.
    9000007    2    3    3    0    0 -0.49194482613E+01  0.18998936345E-01 -0.23875222396E+03  0.24622467559E+03  0.59998042401E+02 0.  0.
          5    1    4    4  501    0 -0.11520281941E+02 -0.18267015002E+02 -0.10958081288E+03  0.11178750057E+03  0.47000000000E+01 0.  1.
         -5    1    4    4    0  501  0.16439730203E+02  0.18248016066E+02 -0.23678631857E+02  0.34438676312E+02  0.47000000000E+01 0.  1.
         12    1    5    5    0    0 -0.30087763459E+02 -0.29139666785E+01 -0.17552843599E+03  0.17811231443E+03  0.00000000000E+00 0. -1.
        -12    1    5    5    0    0  0.25168315198E+02  0.29329656149E+01 -0.63223787968E+02  0.68112361156E+02  0.00000000000E+00 0. -1.
<mgrwt>
<rscale>  0 0.12499996E+03</rscale>
<asrwt>0</asrwt>
<pdfrwt beam="1">  1       21 0.15722449E-02 0.12499996E+03</pdfrwt>
<pdfrwt beam="2">  1       21 0.58804808E-01 0.12499996E+03</pdfrwt>
<totfact> 0.48546190E+06</totfact>
</mgrwt>
</event>
<event>
 9    1  0.4458519E-002  0.1250009E+03  0.7818608E-02  0.1235068E+00
         21   -1    0    0  503  502  0.00000000000E+00  0.00000000000E+00  0.16620046258E+03  0.16620046258E+03  0.00000000000E+00 0. -1.
         21   -1    0    0  502  503 -0.00000000000E+00 -0.00000000000E+00 -0.23503591831E+02  0.23503591831E+02  0.00000000000E+00 0. -1.
         25    2    1    2    0    0  0.00000000000E+00  0.00000000000E+00  0.14269687075E+03  0.18970405441E+03  0.12500092535E+03 0.  0.
    9000006    2    3    3    0    0  0.12103726447E+02 -0.12321397271E+02  0.67085049962E+02  0.91646427343E+02  0.60002889028E+02 0.  0.
    9000007    2    3    3    0    0 -0.12103726447E+02  0.12321397271E+02  0.75611820788E+02  0.98057627070E+02  0.59998614643E+02 0.  0.
          5    1    4    4  501    0 -0.20821521355E+02  0.72782354259E+01  0.34025969280E+02  0.40821134818E+02  0.47000000000E+01 0.  1.
         -5    1    4    4    0  501  0.32925247802E+02 -0.19599632696E+02  0.33059080682E+02  0.50825292524E+02  0.47000000000E+01 0.  1.
         12    1    5    5    0    0 -0.24758174292E+01 -0.24561609603E+01  0.79843657770E+02  0.79919785314E+02  0.00000000000E+00 0.  1.
        -12    1    5    5    0    0 -0.96279090180E+01  0.14777558231E+02 -0.42318369815E+01  0.18137841756E+02  0.00000000000E+00 0.  1.
<mgrwt>
<rscale>  0 0.12500093E+03</rscale>
<asrwt>0</asrwt>
<pdfrwt beam="1">  1       21 0.25569301E-01 0.12500093E+03</pdfrwt>
<pdfrwt beam="2">  1       21 0.36159373E-02 0.12500093E+03</pdfrwt>
<totfact> 0.66053822E+06</totfact>
</mgrwt>
</event>
<event>
 9    1  0.4458519E-002  0.1249996E+03  0.7818608E-02  0.1235070E+00
         21   -1    0    0  503  502  0.00000000000E+00  0.00000000000E+00  0.79084699075E+02  0.79084699075E+02  0.00000000000E+00 0. -1.
         21   -1    0    0  502  503 -0.00000000000E+00 -0.00000000000E+00 -0.49392924543E+02  0.49392924543E+02  0.00000000000E+00 0. -1.
         25    2    1    2    0    0  0.88817841970E-15  0.00000000000E+00  0.29691774532E+02  0.12847762362E+03  0.12499959318E+03 0.  0.
    9000006    2    3    3    0    0 -0.54744594173E+01  0.10360941836E+02  0.28209791307E+02  0.67328062755E+02  0.59999640725E+02 0.  0.
    9000007    2    3    3    0    0  0.54744594173E+01 -0.10360941836E+02  0.14819832248E+01  0.61149560863E+02  0.59997947447E+02 0.  0.
          5    1    4    4  501    0 -0.98106560294E+01 -0.89436563893E+01 -0.14382960250E+02  0.20129518298E+02  0.47000000000E+01 0. -1.
         -5    1    4    4    0  501  0.43361966120E+01  0.19304598225E+02  0.42592751557E+02  0.47198544458E+02  0.47000000000E+01 0. -1.
         12    1    5    5    0    0 -0.18745569078E+02 -0.58178600407E+01 -0.20316785520E+02  0.28249170420E+02  0.00000000000E+00 0. -1.
        -12    1    5    5    0    0  0.24220028496E+02 -0.45430817953E+01  0.21798768745E+02  0.32900390443E+02  0.00000000000E+00 0. -1.
<mgrwt>
<rscale>  0 0.12499959E+03</rscale>
<asrwt>0</asrwt>
<pdfrwt beam="1">  1       21 0.12166877E-01 0.12499959E+03</pdfrwt>
<pdfrwt beam="2">  1       21 0.75989115E-02 0.12499959E+03</pdfrwt>
<totfact> 0.73569900E+06</totfact>
</mgrwt>
</event>
<event>
 9    1  0.4458519E-002  0.1249997E+03  0.7818608E-02  0.1235070E+00
         21   -1    0    0  503  502  0.00000000000E+00  0.00000000000E+00  0.11176761407E+03  0.11176761407E+03  0.00000000000E+00 0. -1.
         21   -1    0    0  502  503 -0.00000000000E+00 -0.00000000000E+00 -0.34949566907E+02  0.34949566907E+02  0.00000000000E+00 0. -1.
         25    2    1    2    0    0  0.00000000000E+00  0.00000000000E+00  0.76818047164E+02  0.14671718098E+03  0.12499967530E+03 0.  0.
    9000006    2    3    3    0    0 -0.82884902282E+01  0.68113730347E+01  0.54620367322E+02  0.81849317423E+02  0.60006935961E+02 0.  0.
    9000007    2    3    3    0    0  0.82884902282E+01 -0.68113730347E+01  0.22197679842E+02  0.64867863555E+02  0.60000073824E+02 0.  0.
          5    1    4    4  501    0 -0.14002584502E+02 -0.20397377289E+02  0.45865695527E+02  0.52324730283E+02  0.47000000000E+01 0.  1.
         -5    1    4    4    0  501  0.57140942735E+01  0.27208750324E+02  0.87546717948E+01  0.29524587140E+02  0.47000000000E+01 0.  1.
         12    1    5    5    0    0  0.19033814907E+02 -0.19394416980E+02 -0.97656173526E+01  0.28875539860E+02  0.00000000000E+00 0. -1.
        -12    1    5    5    0    0 -0.10745324679E+02  0.12583043946E+02  0.31963297195E+02  0.35992323695E+02  0.00000000000E+00 0. -1.
<mgrwt>
<rscale>  0 0.12499968E+03</rscale>
<asrwt>0</asrwt>
<pdfrwt beam="1">  1       21 0.17195017E-01 0.12499968E+03</pdfrwt>
<pdfrwt beam="2">  1       21 0.53768565E-02 0.12499968E+03</pdfrwt>
<totfact> 0.71174649E+06</totfact>
</mgrwt>
</event>
<event>
 9    1  0.4458519E-002  0.1250007E+03  0.7818608E-02  0.1235068E+00
         21   -1    0    0  503  502  0.00000000000E+00  0.00000000000E+00  0.32461587091E+03  0.32461587091E+03  0.00000000000E+00 0.  1.
         21   -1    0    0  502  503 -0.00000000000E+00 -0.00000000000E+00 -0.12033580691E+02  0.12033580691E+02  0.00000000000E+00 0.  1.
         25    2    1    2    0    0  0.17763568394E-14  0.88817841970E-15  0.31258229022E+03  0.33664945160E+03  0.12500066042E+03 0.  0.
    9000006    2    3    3    0    0 -0.14759873950E+02 -0.57399833749E+01  0.17634441260E+03  0.18694419982E+03  0.59999839188E+02 0.  0.
    9000007    2    3    3    0    0  0.14759873950E+02  0.57399833749E+01  0.13623787761E+03  0.14970525178E+03  0.60000848536E+02 0.  0.
          5    1    4    4  501    0  0.10923588166E+02 -0.12697560695E+02  0.13899942782E+02  0.22267717336E+02  0.47000000000E+01 0.  1.
         -5    1    4    4    0  501 -0.25683462116E+02  0.69575773202E+01  0.16244446982E+03  0.16467648248E+03  0.47000000000E+01 0.  1.
         12    1    5    5    0    0  0.85721296847E+01  0.12088022129E+00  0.14019542218E+03  0.14045729750E+03  0.00000000000E+00 0. -1.
        -12    1    5    5    0    0  0.61877442658E+01  0.56191031536E+01 -0.39575445690E+01  0.92479542801E+01  0.00000000000E+00 0. -1.
<mgrwt>
<rscale>  0 0.12500066E+03</rscale>
<asrwt>0</asrwt>
<pdfrwt beam="1">  1       21 0.49940897E-01 0.12500066E+03</pdfrwt>
<pdfrwt beam="2">  1       21 0.18513203E-02 0.12500066E+03</pdfrwt>
<totfact> 0.52538913E+06</totfact>
</mgrwt>
</event>
<event>
 9    1  0.4458519E-002  0.1249989E+03  0.7818608E-02  0.1235071E+00
         21   -1    0    0  503  502  0.00000000000E+00  0.00000000000E+00  0.13849009821E+03  0.13849009821E+03  0.00000000000E+00 0.  1.
         21   -1    0    0  502  503 -0.00000000000E+00 -0.00000000000E+00 -0.28205510275E+02  0.28205510275E+02  0.00000000000E+00 0.  1.
         25    2    1    2    0    0 -0.17763568394E-14  0.00000000000E+00  0.11028458793E+03  0.16669560848E+03  0.12499894220E+03 0.  0.
    9000006    2    3    3    0    0  0.56830163289E+01 -0.12836307668E+02  0.41214369807E+02  0.74132806973E+02  0.59999844349E+02 0.  0.
    9000007    2    3    3    0    0 -0.56830163289E+01  0.12836307668E+02  0.69070218125E+02  0.92562801510E+02  0.60000914346E+02 0.  0.
          5    1    4    4  501    0 -0.12205574693E+02  0.29037374975E+01 -0.10485216821E+02  0.17012863275E+02  0.47000000000E+01 0.  1.
         -5    1    4    4    0  501  0.17888591022E+02 -0.15740045165E+02  0.51699586628E+02  0.57119943698E+02  0.47000000000E+01 0.  1.
         12    1    5    5    0    0 -0.32948182672E+01  0.21195123542E+02 -0.14595599354E+01  0.21499288466E+02  0.00000000000E+00 0.  1.
        -12    1    5    5    0    0 -0.23881980616E+01 -0.83588158736E+01  0.70529778061E+02  0.71063513044E+02  0.00000000000E+00 0.  1.
<mgrwt>
<rscale>  0 0.12499894E+03</rscale>
<asrwt>0</asrwt>
<pdfrwt beam="1">  1       21 0.21306169E-01 0.12499894E+03</pdfrwt>
<pdfrwt beam="2">  1       21 0.43393093E-02 0.12499894E+03</pdfrwt>
<totfact> 0.68712326E+06</totfact>
</mgrwt>
</event>
<event>
 9    1  0.4458519E-002  0.1250065E+03  0.7818608E-02  0.1235059E+00
         21   -1    0    0  503  502  0.00000000000E+00  0.00000000000E+00  0.11135454484E+03  0.11135454484E+03  0.00000000000E+00 0.  1.
         21   -1    0    0  502  503 -0.00000000000E+00 -0.00000000000E+00 -0.35083040394E+02  0.35083040394E+02  0.00000000000E+00 0.  1.
         25    2    1    2    0    0  0.17763568394E-14  0.00000000000E+00  0.76271504445E+02  0.14643758523E+03  0.12500649575E+03 0.  0.
    9000006    2    3    3    0    0 -0.83245297023E+01  0.88318327497E+01  0.23325101179E+02  0.65501646189E+02  0.59992551570E+02 0.  0.
    9000007    2    3    3    0    0  0.83245297023E+01 -0.88318327497E+01  0.52946403266E+02  0.80935939045E+02  0.60000046215E+02 0.  0.
          5    1    4    4  501    0  0.11975403104E+02  0.20584306011E+02  0.31902925457E+02  0.40087536544E+02  0.47000000000E+01 0.  1.
         -5    1    4    4    0  501 -0.20299932806E+02 -0.11752473261E+02 -0.85778242780E+01  0.25414109645E+02  0.47000000000E+01 0.  1.
         12    1    5    5    0    0  0.19376137991E+02 -0.19606879512E+02  0.58389474474E+02  0.64569305223E+02  0.00000000000E+00 0.  1.
        -12    1    5    5    0    0 -0.11051608289E+02  0.10775046762E+02 -0.54430712078E+01  0.16366633822E+02  0.00000000000E+00 0.  1.
<mgrwt>
<rscale>  0 0.12500650E+03</rscale>
<asrwt>0</asrwt>
<pdfrwt beam="1">  1       21 0.17131468E-01 0.12500650E+03</pdfrwt>
<pdfrwt beam="2">  1       21 0.53973909E-02 0.12500650E+03</pdfrwt>
<totfact> 0.71197851E+06</totfact>
</mgrwt>
</event>
<event>
 9    1  0.4458519E-002  0.1250013E+03  0.7818608E-02  0.1235067E+00
         21   -1    0    0  503  502  0.00000000000E+00  0.00000000000E+00  0.10867512551E+03  0.10867512551E+03  0.00000000000E+00 0. -1.
         21   -1    0    0  502  503 -0.00000000000E+00 -0.00000000000E+00 -0.35945016858E+02  0.35945016858E+02  0.00000000000E+00 0. -1.
         25    2    1    2    0    0  0.00000000000E+00  0.00000000000E+00  0.72730108653E+02  0.14462014237E+03  0.12500126749E+03 0.  0.
    9000006    2    3    3    0    0  0.44478896347E+01 -0.10090906722E+02  0.20640074107E+02  0.64401474565E+02  0.59999392883E+02 0.  0.
    9000007    2    3    3    0    0 -0.44478896347E+01  0.10090906722E+02  0.52090034545E+02  0.80218667802E+02  0.60000440368E+02 0.  0.
          5    1    4    4  501    0  0.27700771574E+02  0.99569156023E+01  0.79605235613E+01  0.30853409041E+02  0.47000000000E+01 0. -1.
         -5    1    4    4    0  501 -0.23252881939E+02 -0.20047822324E+02  0.12679550546E+02  0.33548065524E+02  0.47000000000E+01 0. -1.
         12    1    5    5    0    0  0.91925890049E+01  0.17972808678E+02 -0.51635632332E+01  0.20837176624E+02  0.00000000000E+00 0.  1.
        -12    1    5    5    0    0 -0.13640478640E+02 -0.78819019564E+01  0.57253597779E+02  0.59381491178E+02  0.00000000000E+00 0.  1.
<mgrwt>
<rscale>  0 0.12500127E+03</rscale>
<asrwt>0</asrwt>
<pdfrwt beam="1">  1       21 0.16719250E-01 0.12500127E+03</pdfrwt>
<pdfrwt beam="2">  1       21 0.55300027E-02 0.12500127E+03</pdfrwt>
<totfact> 0.71439440E+06</totfact>
</mgrwt>
</event>
<event>
 9    1  0.4458519E-002  0.1250003E+03  0.7818608E-02  0.1235069E+00
         21   -1    0    0  503  502  0.00000000000E+00  0.00000000000E+00  0.36050288880E+02  0.36050288880E+02  0.00000000000E+00 0. -1.
         21   -1    0    0  502  503 -0.00000000000E+00 -0.00000000000E+00 -0.10835609716E+03  0.10835609716E+03  0.00000000000E+00 0. -1.
         25    2    1    2    0    0 -0.17763568394E-14  0.00000000000E+00 -0.72305808276E+02  0.14440638604E+03  0.12500029767E+03 0.  0.
    9000006    2    3    3    0    0  0.98921320389E+01 -0.13771035001E+02 -0.41166673686E+02  0.74714124097E+02  0.60000080300E+02 0.  0.
    9000007    2    3    3    0    0 -0.98921320389E+01  0.13771035001E+02 -0.31139134591E+02  0.69692261939E+02  0.59998916572E+02 0.  0.
          5    1    4    4  501    0 -0.58038708709E+01  0.98827680753E+01  0.10061078844E+02  0.15958362367E+02  0.47000000000E+01 0. -1.
         -5    1    4    4    0  501  0.15696002910E+02 -0.23653803076E+02 -0.51227752530E+02  0.58755761731E+02  0.47000000000E+01 0. -1.
         12    1    5    5    0    0 -0.68420086882E+01  0.37197330494E+02 -0.13308491345E+02  0.40094518586E+02  0.00000000000E+00 0. -1.
        -12    1    5    5    0    0 -0.30501233507E+01 -0.23426295493E+02 -0.17830643246E+02  0.29597743352E+02  0.00000000000E+00 0. -1.
<mgrwt>
<rscale>  0 0.12500030E+03</rscale>
<asrwt>0</asrwt>
<pdfrwt beam="1">  1       21 0.55461983E-02 0.12500030E+03</pdfrwt>
<pdfrwt beam="2">  1       21 0.16670169E-01 0.12500030E+03</pdfrwt>
<totfact> 0.71468611E+06</totfact>
</mgrwt>
</event>
<event>
 9    1  0.4458519E-002  0.1249984E+03  0.7818608E-02  0.1235072E+00
         21   -1    0    0  503  502  0.00000000000E+00  0.00000000000E+00  0.11714686333E+03  0.11714686333E+03  0.00000000000E+00 0. -1.
         21   -1    0    0  502  503 -0.00000000000E+00 -0.00000000000E+00 -0.33344039713E+02  0.33344039713E+02  0.00000000000E+00 0. -1.
         25    2    1    2    0    0  0.00000000000E+00  0.35527136788E-14  0.83802823615E+02  0.15049090304E+03  0.12499839460E+03 0.  0.
    9000006    2    3    3    0    0 -0.26953013843E+01  0.12781463015E+02  0.55918921397E+02  0.83051169968E+02  0.59999505135E+02 0.  0.
    9000007    2    3    3    0    0  0.26953013843E+01 -0.12781463015E+02  0.27883902218E+02  0.67439733073E+02  0.59999792897E+02 0.  0.
          5    1    4    4  501    0 -0.15741888291E+02  0.27266807411E+02  0.10697458780E+02  0.33582904248E+02  0.47000000000E+01 0.  1.
         -5    1    4    4    0  501  0.13046586907E+02 -0.14485344395E+02  0.45221462617E+02  0.49468265720E+02  0.47000000000E+01 0.  1.
         12    1    5    5    0    0  0.17514906140E+02 -0.30659380164E+02  0.26553983975E+02  0.44180126687E+02  0.00000000000E+00 0.  1.
        -12    1    5    5    0    0 -0.14819604756E+02  0.17877917148E+02  0.13299182431E+01  0.23259606386E+02  0.00000000000E+00 0.  1.
<mgrwt>
<rscale>  0 0.12499839E+03</rscale>
<asrwt>0</asrwt>
<pdfrwt beam="1">  1       21 0.18022594E-01 0.12499839E+03</pdfrwt>
<pdfrwt beam="2">  1       21 0.51298523E-02 0.12499839E+03</pdfrwt>
<totfact> 0.70700478E+06</totfact>
</mgrwt>
</event>
<event>
 9    1  0.4458519E-002  0.1250066E+03  0.7818608E-02  0.1235059E+00
         21   -1    0    0  503  502  0.00000000000E+00  0.00000000000E+00  0.17010259589E+02  0.17010259589E+02  0.00000000000E+00 0. -1.
         21   -1    0    0  502  503 -0.00000000000E+00 -0.00000000000E+00 -0.22966507019E+03  0.22966507019E+03  0.00000000000E+00 0. -1.
         25    2    1    2    0    0  0.00000000000E+00  0.66613381478E-15 -0.21265481060E+03  0.24667532978E+03  0.12500659923E+03 0.  0.
    9000006    2    3    3    0    0  0.17487006916E+02  0.94249663629E+00 -0.10707383499E+03  0.12398035211E+03  0.59996982081E+02 0.  0.
    9000007    2    3    3    0    0 -0.17487006916E+02 -0.94249663629E+00 -0.10558097562E+03  0.12269497768E+03  0.60000261865E+02 0.  0.
          5    1    4    4  501    0  0.30496262818E+02  0.60470613799E+00 -0.10565639986E+03  0.11007157919E+03  0.47000000000E+01 0.  1.
         -5    1    4    4    0  501 -0.13009255902E+02  0.33779049830E+00 -0.14174351271E+01  0.13908772910E+02  0.47000000000E+01 0.  1.
         12    1    5    5    0    0 -0.12678796510E+02  0.13910503054E+02 -0.31528010281E+01  0.19083870951E+02  0.00000000000E+00 0. -1.
        -12    1    5    5    0    0 -0.48082104059E+01 -0.14852999690E+02 -0.10242817459E+03  0.10361110672E+03  0.00000000000E+00 0. -1.
<mgrwt>
<rscale>  0 0.12500660E+03</rscale>
<asrwt>0</asrwt>
<pdfrwt beam="1">  1       21 0.26169628E-02 0.12500660E+03</pdfrwt>
<pdfrwt beam="2">  1       21 0.35333091E-01 0.12500660E+03</pdfrwt>
<totfact> 0.60182605E+06</totfact>
</mgrwt>
</event>
<event>
 9    1  0.4458519E-002  0.1250018E+03  0.7818608E-02  0.1235067E+00
         21   -1    0    0  503  502  0.00000000000E+00  0.00000000000E+00  0.28788603762E+02  0.28788603762E+02  0.00000000000E+00 0.  1.
         21   -1    0    0  502  503 -0.00000000000E+00 -0.00000000000E+00 -0.13569118562E+03  0.13569118562E+03  0.00000000000E+00 0.  1.
         25    2    1    2    0    0  0.00000000000E+00  0.17763568394E-14 -0.10690258186E+03  0.16447978938E+03  0.12500175642E+03 0.  0.
    9000006    2    3    3    0    0 -0.23742760867E+01  0.82650373819E+00 -0.76241571511E+02  0.97052461586E+02  0.60000689814E+02 0.  0.
    9000007    2    3    3    0    0  0.23742760867E+01 -0.82650373819E+00 -0.30661010347E+02  0.67427327796E+02  0.60000222357E+02 0.  0.
          5    1    4    4  501    0 -0.22999036054E+02 -0.12087840787E+02 -0.13630460988E+02  0.29714491769E+02  0.47000000000E+01 0.  1.
         -5    1    4    4    0  501  0.20624759968E+02  0.12914344525E+02 -0.62611110523E+02  0.67337969817E+02  0.47000000000E+01 0.  1.
         12    1    5    5    0    0 -0.16014184114E+02 -0.15436014750E+02  0.67599753499E+01  0.23246976382E+02  0.00000000000E+00 0. -1.
        -12    1    5    5    0    0  0.18388460201E+02  0.14609511012E+02 -0.37420985697E+02  0.44180351414E+02  0.00000000000E+00 0. -1.
<mgrwt>
<rscale>  0 0.12500176E+03</rscale>
<asrwt>0</asrwt>
<pdfrwt beam="1">  1       21 0.44290160E-02 0.12500176E+03</pdfrwt>
<pdfrwt beam="2">  1       21 0.20875567E-01 0.12500176E+03</pdfrwt>
<totfact> 0.68973137E+06</totfact>
</mgrwt>
</event>
<event>
 9    1  0.4458519E-002  0.1250025E+03  0.7818608E-02  0.1235065E+00
         21   -1    0    0  503  502  0.00000000000E+00  0.00000000000E+00  0.39559676369E+02  0.39559676369E+02  0.00000000000E+00 0. -1.
         21   -1    0    0  502  503 -0.00000000000E+00 -0.00000000000E+00 -0.98747122289E+02  0.98747122289E+02  0.00000000000E+00 0. -1.
         25    2    1    2    0    0 -0.15543122345E-14  0.00000000000E+00 -0.59187445920E+02  0.13830679866E+03  0.12500246718E+03 0.  0.
    9000006    2    3    3    0    0  0.15696238217E+01 -0.10247034609E+02 -0.13988780758E+02  0.62475391727E+02  0.60000192893E+02 0.  0.
    9000007    2    3    3    0    0 -0.15696238217E+01  0.10247034609E+02 -0.45198665161E+02  0.75831406930E+02  0.60000145895E+02 0.  0.
          5    1    4    4  501    0  0.19146682198E+02  0.16113915205E+02 -0.16508798333E+02  0.30346072643E+02  0.47000000000E+01 0. -1.
         -5    1    4    4    0  501 -0.17577058377E+02 -0.26360949814E+02  0.25200175745E+01  0.32129319085E+02  0.47000000000E+01 0. -1.
         12    1    5    5    0    0 -0.14443380610E+01 -0.16528551777E+02 -0.46146719779E+02  0.49038748787E+02  0.00000000000E+00 0.  1.
        -12    1    5    5    0    0 -0.12528576068E+00  0.26775586385E+02  0.94805461734E+00  0.26792658143E+02  0.00000000000E+00 0.  1.
<mgrwt>
<rscale>  0 0.12500247E+03</rscale>
<asrwt>0</asrwt>
<pdfrwt beam="1">  1       21 0.60861041E-02 0.12500247E+03</pdfrwt>
<pdfrwt beam="2">  1       21 0.15191865E-01 0.12500247E+03</pdfrwt>
<totfact> 0.72256588E+06</totfact>
</mgrwt>
</event>
<event>
 9    1  0.4458519E-002  0.1249965E+03  0.7818608E-02  0.1235075E+00
         21   -1    0    0  503  502  0.00000000000E+00  0.00000000000E+00  0.47775673196E+01  0.47775673196E+01  0.00000000000E+00 0.  1.
         21   -1    0    0  502  503 -0.00000000000E+00 -0.00000000000E+00 -0.81757806490E+03  0.81757806490E+03  0.00000000000E+00 0.  1.
         25    2    1    2    0    0  0.00000000000E+00 -0.17763568394E-14 -0.81280049758E+03  0.82235563222E+03  0.12499654786E+03 0.  0.
    9000006    2    3    3    0    0  0.12534553059E+02  0.81709788510E+01 -0.46603538387E+03  0.47011998618E+03  0.59999520644E+02 0.  0.
    9000007    2    3    3    0    0 -0.12534553059E+02 -0.81709788510E+01 -0.34676511372E+03  0.35223564604E+03  0.60000219450E+02 0.  0.
          5    1    4    4  501    0 -0.14398787220E+02 -0.95541854152E+01 -0.56037477862E+02  0.58829384303E+02  0.47000000000E+01 0. -1.
         -5    1    4    4    0  501  0.26933340278E+02  0.17725164266E+02 -0.40999790600E+03  0.41129060188E+03  0.47000000000E+01 0. -1.
         12    1    5    5    0    0 -0.10920688829E+02  0.23591170702E+02 -0.95839306268E+02  0.99302454176E+02  0.00000000000E+00 0.  1.
        -12    1    5    5    0    0 -0.16138642300E+01 -0.31762149553E+02 -0.25092580745E+03  0.25293319187E+03  0.00000000000E+00 0.  1.
<mgrwt>
<rscale>  0 0.12499655E+03</rscale>
<asrwt>0</asrwt>
<pdfrwt beam="1">  1       21 0.73500994E-03 0.12499655E+03</pdfrwt>
<pdfrwt beam="2">  1       21 0.12578131E+00 0.12499655E+03</pdfrwt>
<totfact> 0.28637829E+06</totfact>
</mgrwt>
</event>
<event>
 9    1  0.4458519E-002  0.1249940E+03  0.7818608E-02  0.1235079E+00
         21   -1    0    0  503  502  0.00000000000E+00  0.00000000000E+00  0.86618716189E+02  0.86618716189E+02  0.00000000000E+00 0. -1.
         21   -1    0    0  502  503 -0.00000000000E+00 -0.00000000000E+00 -0.45092707249E+02  0.45092707249E+02  0.00000000000E+00 0. -1.
         25    2    1    2    0    0 -0.35527136788E-14  0.00000000000E+00  0.41526008940E+02  0.13171142344E+03  0.12499395844E+03 0.  0.
    9000006    2    3    3    0    0  0.14137415265E+02  0.48700551372E+01  0.30328337675E+02  0.68871503399E+02  0.59999099718E+02 0.  0.
    9000007    2    3    3    0    0 -0.14137415265E+02 -0.48700551372E+01  0.11197671265E+02  0.62839920040E+02  0.59999031337E+02 0.  0.
          5    1    4    4  501    0  0.18262925917E+02 -0.19062953968E+02  0.34594373587E+02  0.43769753951E+02  0.47000000000E+01 0. -1.
         -5    1    4    4    0  501 -0.41255106529E+01  0.23933009105E+02 -0.42660359121E+01  0.25101749448E+02  0.47000000000E+01 0. -1.
         12    1    5    5    0    0 -0.30546658949E+02  0.14319887926E+02  0.15669300339E+02  0.37197910375E+02  0.00000000000E+00 0.  1.
        -12    1    5    5    0    0  0.16409243684E+02 -0.19189943063E+02 -0.44716290740E+01  0.25642009664E+02  0.00000000000E+00 0.  1.
<mgrwt>
<rscale>  0 0.12499396E+03</rscale>
<asrwt>0</asrwt>
<pdfrwt beam="1">  1       21 0.13325956E-01 0.12499396E+03</pdfrwt>
<pdfrwt beam="2">  1       21 0.69373396E-02 0.12499396E+03</pdfrwt>
<totfact> 0.73146235E+06</totfact>
</mgrwt>
</event>
<event>
 9    1  0.4458519E-002  0.1250002E+03  0.7818608E-02  0.1235069E+00
         21   -1    0    0  503  502  0.00000000000E+00  0.00000000000E+00  0.20626802870E+03  0.20626802870E+03  0.00000000000E+00 0.  1.
         21   -1    0    0  502  503 -0.00000000000E+00 -0.00000000000E+00 -0.18937794466E+02  0.18937794466E+02  0.00000000000E+00 0.  1.
         25    2    1    2    0    0 -0.26645352591E-14  0.00000000000E+00  0.18733023423E+03  0.22520582316E+03  0.12500018452E+03 0.  0.
    9000006    2    3    3    0    0 -0.69750911376E+01  0.92750405303E+01  0.70065201393E+02  0.92971820737E+02  0.59999572762E+02 0.  0.
    9000007    2    3    3    0    0  0.69750911376E+01 -0.92750405303E+01  0.11726503284E+03  0.13223400243E+03  0.60000543313E+02 0.  0.
          5    1    4    4  501    0 -0.28979742475E+02 -0.39508069155E+01  0.17819827342E+02  0.34569793111E+02  0.47000000000E+01 0. -1.
         -5    1    4    4    0  501  0.22004651337E+02  0.13225847446E+02  0.52245374051E+02  0.58402027626E+02  0.47000000000E+01 0. -1.
         12    1    5    5    0    0  0.33630301992E+01  0.11103730081E+00 -0.68924004348E+01  0.76699077671E+01  0.00000000000E+00 0.  1.
        -12    1    5    5    0    0  0.36120609384E+01 -0.93860778311E+01  0.12415743327E+03  0.12456409466E+03  0.00000000000E+00 0.  1.
<mgrwt>
<rscale>  0 0.12500018E+03</rscale>
<asrwt>0</asrwt>
<pdfrwt beam="1">  1       21 0.31733541E-01 0.12500018E+03</pdfrwt>
<pdfrwt beam="2">  1       21 0.29135070E-02 0.12500018E+03</pdfrwt>
<totfact> 0.62294053E+06</totfact>
</mgrwt>
</event>
<event>
 9    1  0.4458519E-002  0.1249967E+03  0.7818608E-02  0.1235075E+00
         21   -1    0    0  503  502  0.00000000000E+00  0.00000000000E+00  0.29272124269E+03  0.29272124269E+03  0.00000000000E+00 0.  1.
         21   -1    0    0  502  503 -0.00000000000E+00 -0.00000000000E+00 -0.13343892282E+02  0.13343892282E+02  0.00000000000E+00 0.  1.
         25    2    1    2    0    0  0.17763568394E-14 -0.14210854715E-13  0.27937735040E+03  0.30606513497E+03  0.12499665165E+03 0.  0.
    9000006    2    3    3    0    0 -0.55603935672E+01  0.15105057369E+02  0.12291841566E+03  0.13772455716E+03  0.60000300027E+02 0.  0.
    9000007    2    3    3    0    0  0.55603935672E+01 -0.15105057369E+02  0.15645893474E+03  0.16834057780E+03  0.60000592821E+02 0.  0.
          5    1    4    4  501    0  0.88975882899E+01 -0.20386574788E+02  0.35456137570E+02  0.42118964854E+02  0.47000000000E+01 0. -1.
         -5    1    4    4    0  501 -0.14457981857E+02  0.35491632158E+02  0.87462278089E+02  0.95605592311E+02  0.47000000000E+01 0. -1.
         12    1    5    5    0    0 -0.96616963222E+01 -0.35274015419E+02  0.10025402270E+03  0.10671679159E+03  0.00000000000E+00 0.  1.
        -12    1    5    5    0    0  0.15222089889E+02  0.20168958049E+02  0.56204912045E+02  0.61623786214E+02  0.00000000000E+00 0.  1.
<mgrwt>
<rscale>  0 0.12499665E+03</rscale>
<asrwt>0</asrwt>
<pdfrwt beam="1">  1       21 0.45034033E-01 0.12499665E+03</pdfrwt>
<pdfrwt beam="2">  1       21 0.20529067E-02 0.12499665E+03</pdfrwt>
<totfact> 0.54960498E+06</totfact>
</mgrwt>
</event>
<event>
 9    1  0.4458519E-002  0.1249984E+03  0.7818608E-02  0.1235072E+00
         21   -1    0    0  503  502  0.00000000000E+00  0.00000000000E+00  0.63745751247E+02  0.63745751247E+02  0.00000000000E+00 0.  1.
         21   -1    0    0  502  503 -0.00000000000E+00 -0.00000000000E+00 -0.61277007379E+02  0.61277007379E+02  0.00000000000E+00 0.  1.
         25    2    1    2    0    0 -0.17763568394E-14 -0.15543122345E-14  0.24687438677E+01  0.12502275863E+03  0.12499838190E+03 0.  0.
    9000006    2    3    3    0    0  0.42930151962E+01 -0.87837361492E+00  0.18179679133E+02  0.62846519302E+02  0.59999856127E+02 0.  0.
    9000007    2    3    3    0    0 -0.42930151962E+01  0.87837361492E+00 -0.15710935265E+02  0.62176239324E+02  0.59998747736E+02 0.  0.
          5    1    4    4  501    0  0.58818521191E+01  0.25039199873E+02  0.24369166756E+02  0.35742188000E+02  0.47000000000E+01 0.  1.
         -5    1    4    4    0  501 -0.15888369230E+01 -0.25917573488E+02 -0.61894876238E+01  0.27104331302E+02  0.47000000000E+01 0.  1.
         12    1    5    5    0    0  0.22293010314E+02  0.58149456554E+00 -0.25470834166E+02  0.33853800937E+02  0.00000000000E+00 0. -1.
        -12    1    5    5    0    0 -0.26586025511E+02  0.29687904938E+00  0.97598989008E+01  0.28322438387E+02  0.00000000000E+00 0. -1.
<mgrwt>
<rscale>  0 0.12499838E+03</rscale>
<asrwt>0</asrwt>
<pdfrwt beam="1">  1       21 0.98070387E-02 0.12499838E+03</pdfrwt>
<pdfrwt beam="2">  1       21 0.94272319E-02 0.12499838E+03</pdfrwt>
<totfact> 0.74043571E+06</totfact>
</mgrwt>
</event>
<event>
 9    1  0.4458519E-002  0.1249804E+03  0.7818608E-02  0.1235100E+00
         21   -1    0    0  503  502  0.00000000000E+00  0.00000000000E+00  0.21517548205E+03  0.21517548205E+03  0.00000000000E+00 0. -1.
         21   -1    0    0  502  503 -0.00000000000E+00 -0.00000000000E+00 -0.18148080667E+02  0.18148080667E+02  0.00000000000E+00 0. -1.
         25    2    1    2    0    0  0.00000000000E+00  0.35527136788E-14  0.19702740138E+03  0.23332356272E+03  0.12498035055E+03 0.  0.
    9000006    2    3    3    0    0 -0.81995345429E+01 -0.14994972602E+02  0.91802622080E+02  0.11099449146E+03  0.59999784533E+02 0.  0.
    9000007    2    3    3    0    0  0.81995345429E+01  0.14994972602E+02  0.10522477930E+03  0.12232907125E+03  0.60000549370E+02 0.  0.
          5    1    4    4  501    0 -0.15367643653E+02  0.18447523611E+02  0.21076546197E+02  0.32292203369E+02  0.47000000000E+01 0.  1.
         -5    1    4    4    0  501  0.71681091100E+01 -0.33442496213E+02  0.70726075883E+02  0.78702288093E+02  0.47000000000E+01 0.  1.
         12    1    5    5    0    0  0.16970470825E+02  0.25315920933E+02  0.20975905250E+02  0.36998396367E+02  0.00000000000E+00 0.  1.
        -12    1    5    5    0    0 -0.87709362816E+01 -0.10320948330E+02  0.84248874052E+02  0.85330674887E+02  0.00000000000E+00 0.  1.
<mgrwt>
<rscale>  0 0.12498035E+03</rscale>
<asrwt>0</asrwt>
<pdfrwt beam="1">  1       21 0.33103918E-01 0.12498035E+03</pdfrwt>
<pdfrwt beam="2">  1       21 0.27920126E-02 0.12498035E+03</pdfrwt>
<totfact> 0.61515276E+06</totfact>
</mgrwt>
</event>
<event>
 9    1  0.4458519E-002  0.1250006E+03  0.7818608E-02  0.1235068E+00
         21   -1    0    0  503  502  0.00000000000E+00  0.00000000000E+00  0.52971051683E+02  0.52971051683E+02  0.00000000000E+00 0. -1.
         21   -1    0    0  502  503 -0.00000000000E+00 -0.00000000000E+00 -0.73743840694E+02  0.73743840694E+02  0.00000000000E+00 0. -1.
         25    2    1    2    0    0  0.00000000000E+00  0.35527136788E-14 -0.20772789010E+02  0.12671489238E+03  0.12500062075E+03 0.  0.
    9000006    2    3    3    0    0  0.85589103884E+01 -0.14293336180E+02 -0.49533937069E+01  0.62466199994E+02  0.59999463550E+02 0.  0.
    9000007    2    3    3    0    0 -0.85589103884E+01  0.14293336180E+02 -0.15819395303E+02  0.64248692383E+02  0.60000723320E+02 0.  0.
          5    1    4    4  501    0 -0.20474354213E+02 -0.20977488840E+02  0.61652591152E+01  0.30320861440E+02  0.47000000000E+01 0. -1.
         -5    1    4    4    0  501  0.29033264601E+02  0.66841526600E+01 -0.11118652822E+02  0.32145338554E+02  0.47000000000E+01 0. -1.
         12    1    5    5    0    0 -0.16217736115E+02 -0.18988359068E+02  0.31715520831E+01  0.25172037808E+02  0.00000000000E+00 0. -1.
        -12    1    5    5    0    0  0.76588257262E+01  0.33281695248E+02 -0.18990947387E+02  0.39076654575E+02  0.00000000000E+00 0. -1.
<mgrwt>
<rscale>  0 0.12500062E+03</rscale>
<asrwt>0</asrwt>
<pdfrwt beam="1">  1       21 0.81493926E-02 0.12500062E+03</pdfrwt>
<pdfrwt beam="2">  1       21 0.11345206E-01 0.12500062E+03</pdfrwt>
<totfact> 0.73806832E+06</totfact>
</mgrwt>
</event>
<event>
 9    1  0.4458519E-002  0.1249873E+03  0.7818608E-02  0.1235089E+00
         21   -1    0    0  503  502  0.00000000000E+00  0.00000000000E+00  0.12138258404E+03  0.12138258404E+03  0.00000000000E+00 0. -1.
         21   -1    0    0  502  503 -0.00000000000E+00 -0.00000000000E+00 -0.32174769031E+02  0.32174769031E+02  0.00000000000E+00 0. -1.
         25    2    1    2    0    0  0.22204460493E-15  0.35527136788E-14  0.89207815014E+02  0.15355735308E+03  0.12498730505E+03 0.  0.
    9000006    2    3    3    0    0  0.58332746887E+00 -0.16700380663E+02  0.50892807382E+02  0.80432155957E+02  0.60000090696E+02 0.  0.
    9000007    2    3    3    0    0 -0.58332746887E+00  0.16700380663E+02  0.38315007632E+02  0.73125197118E+02  0.60000097154E+02 0.  0.
          5    1    4    4  501    0  0.20669827316E+01 -0.38577483284E+02  0.38796889356E+02  0.54952554608E+02  0.47000000000E+01 0. -1.
         -5    1    4    4    0  501 -0.14836552627E+01  0.21877102622E+02  0.12095918025E+02  0.25479601350E+02  0.47000000000E+01 0. -1.
         12    1    5    5    0    0 -0.12717901686E+02 -0.15293526130E+02  0.32951691465E+02  0.38489621136E+02  0.00000000000E+00 0. -1.
        -12    1    5    5    0    0  0.12134574217E+02  0.31993906792E+02  0.53633161665E+01  0.34635575982E+02  0.00000000000E+00 0. -1.
<mgrwt>
<rscale>  0 0.12498731E+03</rscale>
<asrwt>0</asrwt>
<pdfrwt beam="1">  1       21 0.18674243E-01 0.12498731E+03</pdfrwt>
<pdfrwt beam="2">  1       21 0.49499645E-02 0.12498731E+03</pdfrwt>
<totfact> 0.70337860E+06</totfact>
</mgrwt>
</event>
<event>
 9    1  0.4458519E-002  0.1249976E+03  0.7818608E-02  0.1235073E+00
         21   -1    0    0  503  502  0.00000000000E+00  0.00000000000E+00  0.15340625385E+03  0.15340625385E+03  0.00000000000E+00 0. -1.
         21   -1    0    0  502  503 -0.00000000000E+00 -0.00000000000E+00 -0.25462450781E+02  0.25462450781E+02  0.00000000000E+00 0. -1.
         25    2    1    2    0    0  0.00000000000E+00  0.00000000000E+00  0.12794380307E+03  0.17886870463E+03  0.12499758699E+03 0.  0.
    9000006    2    3    3    0    0  0.47451460918E+01  0.65540841443E+01  0.86166036160E+02  0.10530962992E+03  0.60000499463E+02 0.  0.
    9000007    2    3    3    0    0 -0.47451460918E+01 -0.65540841443E+01  0.41777766912E+02  0.73559074715E+02  0.60000693615E+02 0.  0.
          5    1    4    4  501    0 -0.34154339350E+01 -0.15327389817E+02  0.78635540452E+02  0.80325788447E+02  0.47000000000E+01 0.  1.
         -5    1    4    4    0  501  0.81605800268E+01  0.21881473961E+02  0.75304957088E+01  0.24983841472E+02  0.47000000000E+01 0.  1.
         12    1    5    5    0    0 -0.42247249510E+01 -0.29166671696E+02  0.41548441527E+02  0.50939336784E+02  0.00000000000E+00 0. -1.
        -12    1    5    5    0    0 -0.52042114079E+00  0.22612587551E+02  0.22932538572E+00  0.22619737931E+02  0.00000000000E+00 0. -1.
<mgrwt>
<rscale>  0 0.12499759E+03</rscale>
<asrwt>0</asrwt>
<pdfrwt beam="1">  1       21 0.23600962E-01 0.12499759E+03</pdfrwt>
<pdfrwt beam="2">  1       21 0.39173002E-02 0.12499759E+03</pdfrwt>
<totfact> 0.67285671E+06</totfact>
</mgrwt>
</event>
<event>
 9    1  0.4458519E-002  0.1250021E+03  0.7818608E-02  0.1235066E+00
         21   -1    0    0  503  502  0.00000000000E+00  0.00000000000E+00  0.67769134157E+02  0.67769134157E+02  0.00000000000E+00 0.  1.
         21   -1    0    0  502  503 -0.00000000000E+00 -0.00000000000E+00 -0.57642482075E+02  0.57642482075E+02  0.00000000000E+00 0.  1.
         25    2    1    2    0    0  0.00000000000E+00  0.17763568394E-14  0.10126652082E+02  0.12541161623E+03  0.12500209760E+03 0.  0.
    9000006    2    3    3    0    0 -0.15444410808E+02 -0.78173525341E+01  0.24210961595E+01  0.62492921755E+02  0.59998856131E+02 0.  0.
    9000007    2    3    3    0    0  0.15444410808E+02  0.78173525341E+01  0.77055559225E+01  0.62918694477E+02  0.59997880769E+02 0.  0.
          5    1    4    4  501    0  0.10602937087E+02  0.18891302942E+02  0.96935093306E+01  0.24194167166E+02  0.47000000000E+01 0. -1.
         -5    1    4    4    0  501 -0.26047347895E+02 -0.26708655476E+02 -0.72724131711E+01  0.38298754589E+02  0.47000000000E+01 0. -1.
         12    1    5    5    0    0  0.27173874057E+02 -0.12231773314E+02  0.20717832994E+02  0.36294136078E+02  0.00000000000E+00 0. -1.
        -12    1    5    5    0    0 -0.11729463249E+02  0.20049125848E+02 -0.13012277071E+02  0.26624558399E+02  0.00000000000E+00 0. -1.
<mgrwt>
<rscale>  0 0.12500210E+03</rscale>
<asrwt>0</asrwt>
<pdfrwt beam="1">  1       21 0.10426021E-01 0.12500210E+03</pdfrwt>
<pdfrwt beam="2">  1       21 0.88680742E-02 0.12500210E+03</pdfrwt>
<totfact> 0.73983825E+06</totfact>
</mgrwt>
</event>
<event>
 9    1  0.4458519E-002  0.1250419E+03  0.7818608E-02  0.1235004E+00
         21   -1    0    0  503  502  0.00000000000E+00  0.00000000000E+00  0.37844049052E+01  0.37844049052E+01  0.00000000000E+00 0. -1.
         21   -1    0    0  502  503 -0.00000000000E+00 -0.00000000000E+00 -0.10328893266E+04  0.10328893266E+04  0.00000000000E+00 0. -1.
         25    2    1    2    0    0 -0.44408920985E-15  0.00000000000E+00 -0.10291049217E+04  0.10366737316E+04  0.12504193591E+03 0.  0.
    9000006    2    3    3    0    0 -0.12326272965E+01  0.31067040309E+01 -0.65766007110E+03  0.66039990502E+03  0.60000787155E+02 0.  0.
    9000007    2    3    3    0    0  0.12326272965E+01 -0.31067040309E+01 -0.37144485065E+03  0.37627382653E+03  0.59996203883E+02 0.  0.
          5    1    4    4  501    0 -0.33828595632E+01  0.19559637103E+02 -0.82609336640E+02  0.85090631932E+02  0.47000000000E+01 0.  1.
         -5    1    4    4    0  501  0.21502322667E+01 -0.16452933072E+02 -0.57505073446E+03  0.57530927309E+03  0.47000000000E+01 0.  1.
         12    1    5    5    0    0  0.96263222771E+00 -0.89138385502E+01 -0.37022534039E+03  0.37033388428E+03  0.00000000000E+00 0. -1.
        -12    1    5    5    0    0  0.26999506877E+00  0.58071345193E+01 -0.12195102540E+01  0.59399422490E+01  0.00000000000E+00 0. -1.
<mgrwt>
<rscale>  0 0.12504194E+03</rscale>
<asrwt>0</asrwt>
<pdfrwt beam="1">  1       21 0.58221615E-03 0.12504194E+03</pdfrwt>
<pdfrwt beam="2">  1       21 0.15890605E+00 0.12504194E+03</pdfrwt>
<totfact> 0.22693834E+06</totfact>
</mgrwt>
</event>
<event>
 9    1  0.4458519E-002  0.1250026E+03  0.7818608E-02  0.1235065E+00
         21   -1    0    0  503  502  0.00000000000E+00  0.00000000000E+00  0.12952030511E+03  0.12952030511E+03  0.00000000000E+00 0.  1.
         21   -1    0    0  502  503 -0.00000000000E+00 -0.00000000000E+00 -0.30160623401E+02  0.30160623401E+02  0.00000000000E+00 0.  1.
         25    2    1    2    0    0 -0.17763568394E-14  0.00000000000E+00  0.99359681706E+02  0.15968092851E+03  0.12500261029E+03 0.  0.
    9000006    2    3    3    0    0  0.37812285193E+01  0.11465833221E+01  0.27872529494E+02  0.66265434599E+02  0.59988478725E+02 0.  0.
    9000007    2    3    3    0    0 -0.37812285193E+01 -0.11465833221E+01  0.71487152212E+02  0.93415493909E+02  0.60003576797E+02 0.  0.
          5    1    4    4  501    0 -0.26366438931E+02  0.35862580781E+01  0.22555435856E+02  0.35197841348E+02  0.47000000000E+01 0.  1.
         -5    1    4    4    0  501  0.30147667451E+02 -0.24396747560E+01  0.53170936381E+01  0.31067593251E+02  0.47000000000E+01 0.  1.
         12    1    5    5    0    0 -0.12501421012E+02  0.11664887690E+02  0.75495819045E+02  0.77407840852E+02  0.00000000000E+00 0. -1.
        -12    1    5    5    0    0  0.87201924930E+01 -0.12811471012E+02 -0.40086668326E+01  0.16007653057E+02  0.00000000000E+00 0. -1.
<mgrwt>
<rscale>  0 0.12500261E+03</rscale>
<asrwt>0</asrwt>
<pdfrwt beam="1">  1       21 0.19926200E-01 0.12500261E+03</pdfrwt>
<pdfrwt beam="2">  1       21 0.46400960E-02 0.12500261E+03</pdfrwt>
<totfact> 0.69553888E+06</totfact>
</mgrwt>
</event>
<event>
 9    1  0.4458519E-002  0.1250006E+03  0.7818608E-02  0.1235068E+00
         21   -1    0    0  503  502  0.00000000000E+00  0.00000000000E+00  0.78884423946E+03  0.78884423946E+03  0.00000000000E+00 0. -1.
         21   -1    0    0  502  503 -0.00000000000E+00 -0.00000000000E+00 -0.49519097434E+01  0.49519097434E+01  0.00000000000E+00 0. -1.
         25    2    1    2    0    0 -0.35527136788E-14 -0.17763568394E-14  0.78389232972E+03  0.79379614920E+03  0.12500056761E+03 0.  0.
    9000006    2    3    3    0    0 -0.80565677250E+01 -0.15471680814E+02  0.40097297011E+03  0.40581229310E+03  0.60000110689E+02 0.  0.
    9000007    2    3    3    0    0  0.80565677250E+01  0.15471680814E+02  0.38291935961E+03  0.38798385611E+03  0.59999628695E+02 0.  0.
          5    1    4    4  501    0 -0.99776305512E+01  0.15406579326E+02  0.28689972338E+03  0.28752470689E+03  0.47000000000E+01 0. -1.
         -5    1    4    4    0  501  0.19210628263E+01 -0.30878260140E+02  0.11407324673E+03  0.11828758620E+03  0.47000000000E+01 0. -1.
         12    1    5    5    0    0 -0.23626290224E+02 -0.14773645424E+01  0.21271216938E+03  0.21402535177E+03  0.00000000000E+00 0. -1.
        -12    1    5    5    0    0  0.31682857949E+02  0.16949045357E+02  0.17020719023E+03  0.17395850434E+03  0.00000000000E+00 0. -1.
<mgrwt>
<rscale>  0 0.12500057E+03</rscale>
<asrwt>0</asrwt>
<pdfrwt beam="1">  1       21 0.12136055E+00 0.12500057E+03</pdfrwt>
<pdfrwt beam="2">  1       21 0.76183290E-03 0.12500057E+03</pdfrwt>
<totfact> 0.29569006E+06</totfact>
</mgrwt>
</event>
<event>
 9    1  0.4458519E-002  0.1249999E+03  0.7818608E-02  0.1235069E+00
         21   -1    0    0  503  502  0.00000000000E+00  0.00000000000E+00  0.17768477359E+02  0.17768477359E+02  0.00000000000E+00 0.  1.
         21   -1    0    0  502  503 -0.00000000000E+00 -0.00000000000E+00 -0.21984112692E+03  0.21984112692E+03  0.00000000000E+00 0.  1.
         25    2    1    2    0    0  0.17763568394E-14  0.17763568394E-14 -0.20207264956E+03  0.23760960428E+03  0.12499987338E+03 0.  0.
    9000006    2    3    3    0    0  0.18983770818E+01 -0.55507387942E+01 -0.13237138734E+03  0.14545305856E+03  0.59999946010E+02 0.  0.
    9000007    2    3    3    0    0 -0.18983770818E+01  0.55507387942E+01 -0.69701262213E+02  0.92156545713E+02  0.60001236878E+02 0.  0.
          5    1    4    4  501    0  0.14705033338E+02 -0.25837982468E+02 -0.10263464734E+03  0.10695700154E+03  0.47000000000E+01 0.  1.
         -5    1    4    4    0  501 -0.12806656257E+02  0.20287243674E+02 -0.29736740004E+02  0.38496057024E+02  0.47000000000E+01 0.  1.
         12    1    5    5    0    0 -0.22527999088E+02 -0.13582373011E+02 -0.53678642350E+02  0.59777824016E+02  0.00000000000E+00 0. -1.
        -12    1    5    5    0    0  0.20629622006E+02  0.19133111805E+02 -0.16022619863E+02  0.32378721697E+02  0.00000000000E+00 0. -1.
<mgrwt>
<rscale>  0 0.12499987E+03</rscale>
<asrwt>0</asrwt>
<pdfrwt beam="1">  1       21 0.27336118E-02 0.12499987E+03</pdfrwt>
<pdfrwt beam="2">  1       21 0.33821713E-01 0.12499987E+03</pdfrwt>
<totfact> 0.61064940E+06</totfact>
</mgrwt>
</event>
<event>
 9    1  0.4458519E-002  0.1250034E+03  0.7818608E-02  0.1235064E+00
         21   -1    0    0  503  502  0.00000000000E+00  0.00000000000E+00  0.20644667990E+03  0.20644667990E+03  0.00000000000E+00 0. -1.
         21   -1    0    0  502  503 -0.00000000000E+00 -0.00000000000E+00 -0.18922377287E+02  0.18922377287E+02  0.00000000000E+00 0. -1.
         25    2    1    2    0    0  0.00000000000E+00  0.17763568394E-14  0.18752430261E+03  0.22536905718E+03  0.12500339142E+03 0.  0.
    9000006    2    3    3    0    0  0.49576389660E+01 -0.13234229740E+02  0.75141926804E+02  0.97190655638E+02  0.59999927989E+02 0.  0.
    9000007    2    3    3    0    0 -0.49576389660E+01  0.13234229740E+02  0.11238237580E+03  0.12817840154E+03  0.60001510064E+02 0.  0.
          5    1    4    4  501    0 -0.20717670676E+02 -0.22929508275E+02  0.53348796976E+02  0.61831774734E+02  0.47000000000E+01 0.  1.
         -5    1    4    4    0  501  0.25675309642E+02  0.96952785354E+01  0.21793129828E+02  0.35358880904E+02  0.47000000000E+01 0.  1.
         12    1    5    5    0    0  0.20112992467E+02  0.24349171654E+02  0.78322956943E+02  0.84450578509E+02  0.00000000000E+00 0.  1.
        -12    1    5    5    0    0 -0.25070631433E+02 -0.11114941914E+02  0.34059418861E+02  0.43727823035E+02  0.00000000000E+00 0.  1.
<mgrwt>
<rscale>  0 0.12500339E+03</rscale>
<asrwt>0</asrwt>
<pdfrwt beam="1">  1       21 0.31761026E-01 0.12500339E+03</pdfrwt>
<pdfrwt beam="2">  1       21 0.29111351E-02 0.12500339E+03</pdfrwt>
<totfact> 0.62272546E+06</totfact>
</mgrwt>
</event>
<event>
 9    1  0.4458519E-002  0.1249994E+03  0.7818608E-02  0.1235070E+00
         21   -1    0    0  503  502  0.00000000000E+00  0.00000000000E+00  0.15665158958E+02  0.15665158958E+02  0.00000000000E+00 0.  1.
         21   -1    0    0  502  503 -0.00000000000E+00 -0.00000000000E+00 -0.24935666468E+03  0.24935666468E+03  0.00000000000E+00 0.  1.
         25    2    1    2    0    0  0.00000000000E+00  0.17763568394E-14 -0.23369150572E+03  0.26502182364E+03  0.12499938863E+03 0.  0.
    9000006    2    3    3    0    0 -0.17090855968E+02  0.30520189143E+01 -0.11218932886E+03  0.12840504570E+03  0.59999983966E+02 0.  0.
    9000007    2    3    3    0    0  0.17090855968E+02 -0.30520189143E+01 -0.12150217687E+03  0.13661677794E+03  0.59999607105E+02 0.  0.
          5    1    4    4  501    0  0.12205593217E+02 -0.10150479315E+02 -0.83331550614E+02  0.84960261675E+02  0.47000000000E+01 0.  1.
         -5    1    4    4    0  501 -0.29296449185E+02  0.13202498229E+02 -0.28857778242E+02  0.43444784030E+02  0.47000000000E+01 0.  1.
         12    1    5    5    0    0  0.27707412186E+02  0.16544498585E+02 -0.36404231687E+02  0.48648630075E+02  0.00000000000E+00 0.  1.
        -12    1    5    5    0    0 -0.10616556218E+02 -0.19596517499E+02 -0.85097945182E+02  0.87968147862E+02  0.00000000000E+00 0.  1.
<mgrwt>
<rscale>  0 0.12499939E+03</rscale>
<asrwt>0</asrwt>
<pdfrwt beam="1">  1       21 0.24100246E-02 0.12499939E+03</pdfrwt>
<pdfrwt beam="2">  1       21 0.38362562E-01 0.12499939E+03</pdfrwt>
<totfact> 0.58492932E+06</totfact>
</mgrwt>
</event>
<event>
 9    1  0.4458519E-002  0.1250120E+03  0.7818608E-02  0.1235051E+00
         21   -1    0    0  503  502  0.00000000000E+00  0.00000000000E+00  0.10487656623E+03  0.10487656623E+03  0.00000000000E+00 0. -1.
         21   -1    0    0  502  503 -0.00000000000E+00 -0.00000000000E+00 -0.37253297481E+02  0.37253297481E+02  0.00000000000E+00 0. -1.
         25    2    1    2    0    0 -0.35527136788E-14  0.00000000000E+00  0.67623268744E+02  0.14212986371E+03  0.12501196615E+03 0.  0.
    9000006    2    3    3    0    0  0.39088555874E+01 -0.17070229367E+02  0.33198874295E+02  0.70773552361E+02  0.60000488137E+02 0.  0.
    9000007    2    3    3    0    0 -0.39088555874E+01  0.17070229367E+02  0.34424394449E+02  0.71356311345E+02  0.60000102941E+02 0.  0.
          5    1    4    4  501    0 -0.22595051473E+02 -0.23580133107E+02  0.95294985093E+01  0.34343272562E+02  0.47000000000E+01 0.  1.
         -5    1    4    4    0  501  0.26503907061E+02  0.65099037396E+01  0.23669375785E+02  0.36430279799E+02  0.47000000000E+01 0.  1.
         12    1    5    5    0    0 -0.28909542931E+02  0.40525750137E+01  0.31612765583E+02  0.43029664007E+02  0.00000000000E+00 0.  1.
        -12    1    5    5    0    0  0.25000687344E+02  0.13017654354E+02  0.28116288669E+01  0.28326647338E+02  0.00000000000E+00 0.  1.
<mgrwt>
<rscale>  0 0.12501197E+03</rscale>
<asrwt>0</asrwt>
<pdfrwt beam="1">  1       21 0.16134856E-01 0.12501197E+03</pdfrwt>
<pdfrwt beam="2">  1       21 0.57312766E-02 0.12501197E+03</pdfrwt>
<totfact> 0.71740595E+06</totfact>
</mgrwt>
</event>
<event>
 9    1  0.4458519E-002  0.1249995E+03  0.7818608E-02  0.1235070E+00
         21   -1    0    0  503  502  0.00000000000E+00  0.00000000000E+00  0.14502511948E+02  0.14502511948E+02  0.00000000000E+00 0.  1.
         21   -1    0    0  502  503 -0.00000000000E+00 -0.00000000000E+00 -0.26934764743E+03  0.26934764743E+03  0.00000000000E+00 0.  1.
         25    2    1    2    0    0  0.00000000000E+00 -0.35527136788E-14 -0.25484513548E+03  0.28385015938E+03  0.12499947960E+03 0.  0.
    9000006    2    3    3    0    0 -0.13570214063E+01 -0.86064292703E+01 -0.92949507235E+02  0.11097495244E+03  0.59999308679E+02 0.  0.
    9000007    2    3    3    0    0  0.13570214063E+01  0.86064292703E+01 -0.16189562825E+03  0.17287520694E+03  0.59997754926E+02 0.  0.
          5    1    4    4  501    0 -0.84340816012E+01  0.20539250285E+02 -0.67975143904E+02  0.71663831348E+02  0.47000000000E+01 0. -1.
         -5    1    4    4    0  501  0.70770601949E+01 -0.29145679555E+02 -0.24974363331E+02  0.39311121092E+02  0.47000000000E+01 0. -1.
         12    1    5    5    0    0 -0.28667674374E+00  0.26028470420E+02 -0.14869250630E+03  0.15095371770E+03  0.00000000000E+00 0.  1.
        -12    1    5    5    0    0  0.16436981500E+01 -0.17422041150E+02 -0.13203121945E+02  0.21921489240E+02  0.00000000000E+00 0.  1.
<mgrwt>
<rscale>  0 0.12499948E+03</rscale>
<asrwt>0</asrwt>
<pdfrwt beam="1">  1       21 0.22311559E-02 0.12499948E+03</pdfrwt>
<pdfrwt beam="2">  1       21 0.41438096E-01 0.12499948E+03</pdfrwt>
<totfact> 0.56826319E+06</totfact>
</mgrwt>
</event>
<event>
 9    1  0.4458519E-002  0.1249995E+03  0.7818608E-02  0.1235070E+00
         21   -1    0    0  503  502  0.00000000000E+00  0.00000000000E+00  0.78262149252E+01  0.78262149252E+01  0.00000000000E+00 0. -1.
         21   -1    0    0  502  503 -0.00000000000E+00 -0.00000000000E+00 -0.49911950375E+03  0.49911950375E+03  0.00000000000E+00 0. -1.
         25    2    1    2    0    0  0.00000000000E+00 -0.71054273576E-14 -0.49129328883E+03  0.50694571868E+03  0.12499946415E+03 0.  0.
    9000006    2    3    3    0    0  0.46915075716E+01 -0.16726306113E+02 -0.25419524936E+03  0.26175764319E+03  0.60000495103E+02 0.  0.
    9000007    2    3    3    0    0 -0.46915075716E+01  0.16726306113E+02 -0.23709803947E+03  0.24518807549E+03  0.59999437346E+02 0.  0.
          5    1    4    4  501    0 -0.89155664723E+01 -0.34478611415E+02 -0.10879104482E+03  0.11456807323E+03  0.47000000000E+01 0. -1.
         -5    1    4    4    0  501  0.13607074044E+02  0.17752305302E+02 -0.14540420454E+03  0.14718956996E+03  0.47000000000E+01 0. -1.
         12    1    5    5    0    0  0.22876290315E+02  0.21171096652E+02 -0.16404836758E+03  0.16698325334E+03  0.00000000000E+00 0.  1.
        -12    1    5    5    0    0 -0.27567797887E+02 -0.44447905393E+01 -0.73049671889E+02  0.78204822143E+02  0.00000000000E+00 0.  1.
<mgrwt>
<rscale>  0 0.12499946E+03</rscale>
<asrwt>0</asrwt>
<pdfrwt beam="1">  1       21 0.12040329E-02 0.12499946E+03</pdfrwt>
<pdfrwt beam="2">  1       21 0.76787627E-01 0.12499946E+03</pdfrwt>
<totfact> 0.41670428E+06</totfact>
</mgrwt>
</event>
<event>
 9    1  0.4458519E-002  0.1250111E+03  0.7818608E-02  0.1235052E+00
         21   -1    0    0  503  502  0.00000000000E+00  0.00000000000E+00  0.10801504278E+03  0.10801504278E+03  0.00000000000E+00 0.  1.
         21   -1    0    0  502  503 -0.00000000000E+00 -0.00000000000E+00 -0.36170346435E+02  0.36170346435E+02  0.00000000000E+00 0.  1.
         25    2    1    2    0    0  0.88817841970E-15  0.00000000000E+00  0.71844696342E+02  0.14418538921E+03  0.12501106379E+03 0.  0.
    9000006    2    3    3    0    0 -0.78664877001E+01  0.15649113110E+02  0.35441130310E+02  0.71852193908E+02  0.59999064008E+02 0.  0.
    9000007    2    3    3    0    0  0.78664877001E+01 -0.15649113110E+02  0.36403566032E+02  0.72333195304E+02  0.60000792938E+02 0.  0.
          5    1    4    4  501    0  0.25942141234E+01  0.54846198452E+01  0.50076937154E+02  0.50661628838E+02  0.47000000000E+01 0. -1.
         -5    1    4    4    0  501 -0.10460701824E+02  0.10164493265E+02 -0.14635806845E+02  0.21190565070E+02  0.47000000000E+01 0. -1.
         12    1    5    5    0    0 -0.47851352680E+00 -0.15295078735E+02  0.52236711100E+02  0.54431997898E+02  0.00000000000E+00 0. -1.
        -12    1    5    5    0    0  0.83450012269E+01 -0.35403437532E+00 -0.15833145068E+02  0.17901197406E+02  0.00000000000E+00 0. -1.
<mgrwt>
<rscale>  0 0.12501106E+03</rscale>
<asrwt>0</asrwt>
<pdfrwt beam="1">  1       21 0.16617699E-01 0.12501106E+03</pdfrwt>
<pdfrwt beam="2">  1       21 0.55646687E-02 0.12501106E+03</pdfrwt>
<totfact> 0.71477369E+06</totfact>
</mgrwt>
</event>
<event>
 9    1  0.4458519E-002  0.1249876E+03  0.7818608E-02  0.1235089E+00
         21   -1    0    0  503  502  0.00000000000E+00  0.00000000000E+00  0.25577762079E+03  0.25577762079E+03  0.00000000000E+00 0.  1.
         21   -1    0    0  502  503 -0.00000000000E+00 -0.00000000000E+00 -0.15269018361E+02  0.15269018361E+02  0.00000000000E+00 0.  1.
         25    2    1    2    0    0  0.00000000000E+00 -0.88817841970E-15  0.24050860243E+03  0.27104663915E+03  0.12498757039E+03 0.  0.
    9000006    2    3    3    0    0  0.15499230187E+02  0.67475202284E+01  0.11061958642E+03  0.12697402055E+03  0.59999615233E+02 0.  0.
    9000007    2    3    3    0    0 -0.15499230187E+02 -0.67475202284E+01  0.12988901601E+03  0.14407261861E+03  0.60000064887E+02 0.  0.
          5    1    4    4  501    0  0.11616042355E+02 -0.97539757668E+01  0.10803221296E+03  0.10919304703E+03  0.47000000000E+01 0. -1.
         -5    1    4    4    0  501  0.38831878321E+01  0.16501495995E+02  0.25873734665E+01  0.17780973519E+02  0.47000000000E+01 0. -1.
         12    1    5    5    0    0  0.17951420816E+02  0.48309835230E+01  0.84455895860E+02  0.86477686466E+02  0.00000000000E+00 0. -1.
        -12    1    5    5    0    0 -0.33450651003E+02 -0.11578503751E+02  0.45433120151E+02  0.57594932141E+02  0.00000000000E+00 0. -1.
<mgrwt>
<rscale>  0 0.12498757E+03</rscale>
<asrwt>0</asrwt>
<pdfrwt beam="1">  1       21 0.39350400E-01 0.12498757E+03</pdfrwt>
<pdfrwt beam="2">  1       21 0.23490799E-02 0.12498757E+03</pdfrwt>
<totfact> 0.57969478E+06</totfact>
</mgrwt>
</event>
<event>
 8    1  0.4458519E-002  0.1251795E+03  0.7818608E-02  0.1234789E+00
         21   -1    0    0  503  502  0.00000000000E+00  0.00000000000E+00  0.13229478299E+03  0.13229478299E+03  0.00000000000E+00 0. -1.
         21   -1    0    0  502  503 -0.00000000000E+00 -0.00000000000E+00 -0.29611710522E+02  0.29611710522E+02  0.00000000000E+00 0. -1.
    9000006    2    1    2    0    0  0.15753989665E+02  0.64175893645E+01  0.58186857396E+02  0.85295204453E+02  0.60001565691E+02 0.  0.
    9000007    2    1    2    0    0 -0.15753989665E+02 -0.64175893645E+01  0.44496215071E+02  0.76611289059E+02  0.60000023433E+02 0.  0.
          5    1    3    3  501    0  0.38310374409E+02  0.66800406189E+00  0.35095983938E+02  0.52172302090E+02  0.47000000000E+01 0. -1.
         -5    1    3    3    0  501 -0.22556384744E+02  0.57495853026E+01  0.23090873458E+02  0.33122902363E+02  0.47000000000E+01 0. -1.
         12    1    4    4    0    0  0.75291221239E+01 -0.27576428871E+02  0.10925062730E+02  0.30602354564E+02  0.00000000000E+00 0. -1.
        -12    1    4    4    0    0 -0.23283111789E+02  0.21158839506E+02  0.33571152342E+02  0.46008934495E+02  0.00000000000E+00 0. -1.
<mgrwt>
<rscale>  0 0.12517947E+03</rscale>
<asrwt>0</asrwt>
<pdfrwt beam="1">  1       21 0.20353043E-01 0.12517947E+03</pdfrwt>
<pdfrwt beam="2">  1       21 0.45556478E-02 0.12517947E+03</pdfrwt>
<totfact> 0.68972126E+06</totfact>
</mgrwt>
</event>
<event>
 9    1  0.4458519E-002  0.1249998E+03  0.7818608E-02  0.1235070E+00
         21   -1    0    0  503  502  0.00000000000E+00  0.00000000000E+00  0.66845816755E+02  0.66845816755E+02  0.00000000000E+00 0. -1.
         21   -1    0    0  502  503 -0.00000000000E+00 -0.00000000000E+00 -0.58436487147E+02  0.58436487147E+02  0.00000000000E+00 0. -1.
         25    2    1    2    0    0  0.00000000000E+00  0.00000000000E+00  0.84093296080E+01  0.12528230390E+03  0.12499975539E+03 0.  0.
    9000006    2    3    3    0    0 -0.13259187975E+02  0.10097056330E+02 -0.11499707927E+01  0.62281314039E+02  0.59999025269E+02 0.  0.
    9000007    2    3    3    0    0  0.13259187975E+02 -0.10097056330E+02  0.95593004007E+01  0.63000989863E+02  0.59999899061E+02 0.  0.
          5    1    4    4  501    0 -0.11580129051E+02  0.25703569780E+02  0.20469114536E+02  0.35154623283E+02  0.47000000000E+01 0. -1.
         -5    1    4    4    0  501 -0.16790589241E+01 -0.15606513450E+02 -0.21619085329E+02  0.27126690756E+02  0.47000000000E+01 0. -1.
         12    1    5    5    0    0  0.17625845877E+02 -0.14053368453E+02 -0.21641089423E+02  0.31249069733E+02  0.00000000000E+00 0.  1.
        -12    1    5    5    0    0 -0.43666579021E+01  0.39563121231E+01  0.31200389823E+02  0.31751920130E+02  0.00000000000E+00 0.  1.
<mgrwt>
<rscale>  0 0.12499976E+03</rscale>
<asrwt>0</asrwt>
<pdfrwt beam="1">  1       21 0.10283972E-01 0.12499976E+03</pdfrwt>
<pdfrwt beam="2">  1       21 0.89902287E-02 0.12499976E+03</pdfrwt>
<totfact> 0.74005923E+06</totfact>
</mgrwt>
</event>
<event>
 9    1  0.4458519E-002  0.1249971E+03  0.7818608E-02  0.1235074E+00
         21   -1    0    0  503  502  0.00000000000E+00  0.00000000000E+00  0.18177531865E+03  0.18177531865E+03  0.00000000000E+00 0.  1.
         21   -1    0    0  502  503 -0.00000000000E+00 -0.00000000000E+00 -0.21488435800E+02  0.21488435800E+02  0.00000000000E+00 0.  1.
         25    2    1    2    0    0  0.00000000000E+00  0.00000000000E+00  0.16028688285E+03  0.20326375445E+03  0.12499707620E+03 0.  0.
    9000006    2    3    3    0    0  0.46710809810E+01 -0.16595553800E+02  0.75315194543E+02  0.97824567108E+02  0.60000299977E+02 0.  0.
    9000007    2    3    3    0    0 -0.46710809810E+01  0.16595553800E+02  0.84971688307E+02  0.10543918734E+03  0.60000025082E+02 0.  0.
          5    1    4    4  501    0 -0.84389056772E+01 -0.31811652132E+02  0.20022698312E+02  0.38809725432E+02  0.47000000000E+01 0. -1.
         -5    1    4    4    0  501  0.13109986658E+02  0.15216098332E+02  0.55292496231E+02  0.59014841676E+02  0.47000000000E+01 0. -1.
         12    1    5    5    0    0 -0.22282385365E+02 -0.39774193019E+01  0.82718296920E+01  0.24098708021E+02  0.00000000000E+00 0.  1.
        -12    1    5    5    0    0  0.17611304384E+02  0.20572973102E+02  0.76699858615E+02  0.81340479319E+02  0.00000000000E+00 0.  1.
<mgrwt>
<rscale>  0 0.12499708E+03</rscale>
<asrwt>0</asrwt>
<pdfrwt beam="1">  1       21 0.27965433E-01 0.12499708E+03</pdfrwt>
<pdfrwt beam="2">  1       21 0.33059133E-02 0.12499708E+03</pdfrwt>
<totfact> 0.64580088E+06</totfact>
</mgrwt>
</event>
<event>
 9    1  0.4458519E-002  0.1249993E+03  0.7818608E-02  0.1235070E+00
         21   -1    0    0  503  502  0.00000000000E+00  0.00000000000E+00  0.24706358006E+02  0.24706358006E+02  0.00000000000E+00 0. -1.
         21   -1    0    0  502  503 -0.00000000000E+00 -0.00000000000E+00 -0.15810531669E+03  0.15810531669E+03  0.00000000000E+00 0. -1.
         25    2    1    2    0    0  0.00000000000E+00  0.00000000000E+00 -0.13339895869E+03  0.18281167470E+03  0.12499930491E+03 0.  0.
    9000006    2    3    3    0    0 -0.89928705314E+01  0.11387855423E+02 -0.81010427068E+02  0.10184842087E+03  0.59998804724E+02 0.  0.
    9000007    2    3    3    0    0  0.89928705314E+01 -0.11387855423E+02 -0.52388531621E+02  0.80963253831E+02  0.59999460447E+02 0.  0.
          5    1    4    4  501    0 -0.31901995666E+02  0.13681280321E+02 -0.31776705325E+02  0.47294436882E+02  0.47000000000E+01 0.  1.
         -5    1    4    4    0  501  0.22909125135E+02 -0.22934248983E+01 -0.49233721743E+02  0.54553983987E+02  0.47000000000E+01 0.  1.
         12    1    5    5    0    0  0.65349052504E+01  0.96332358666E+01 -0.57927998323E+02  0.59086015347E+02  0.00000000000E+00 0. -1.
        -12    1    5    5    0    0  0.24579652810E+01 -0.21021091289E+02  0.55394667024E+01  0.21877238484E+02  0.00000000000E+00 0. -1.
<mgrwt>
<rscale>  0 0.12499930E+03</rscale>
<asrwt>0</asrwt>
<pdfrwt beam="1">  1       21 0.38009781E-02 0.12499930E+03</pdfrwt>
<pdfrwt beam="2">  1       21 0.24323895E-01 0.12499930E+03</pdfrwt>
<totfact> 0.66831623E+06</totfact>
</mgrwt>
</event>
<event>
 9    1  0.4458519E-002  0.1249987E+03  0.7818608E-02  0.1235071E+00
         21   -1    0    0  503  502  0.00000000000E+00  0.00000000000E+00  0.89536362696E+01  0.89536362696E+01  0.00000000000E+00 0. -1.
         21   -1    0    0  502  503 -0.00000000000E+00 -0.00000000000E+00 -0.43626593518E+03  0.43626593518E+03  0.00000000000E+00 0. -1.
         25    2    1    2    0    0  0.00000000000E+00 -0.17763568394E-14 -0.42731229891E+03  0.44521957145E+03  0.12499866400E+03 0.  0.
    9000006    2    3    3    0    0  0.11152217377E+01 -0.14618111894E+02 -0.17959174646E+03  0.18991572727E+03  0.59998792950E+02 0.  0.
    9000007    2    3    3    0    0 -0.11152217377E+01  0.14618111894E+02 -0.24772055245E+03  0.25530384417E+03  0.59997065165E+02 0.  0.
          5    1    4    4  501    0  0.17311600202E+02  0.21869381604E+01 -0.15363417066E+03  0.15469331788E+03  0.47000000000E+01 0. -1.
         -5    1    4    4    0  501 -0.16196378464E+02 -0.16805050054E+02 -0.25957575792E+02  0.35222409396E+02  0.47000000000E+01 0. -1.
         12    1    5    5    0    0  0.24248270492E+02  0.54975010820E+01 -0.50919961636E+02  0.56666071268E+02  0.00000000000E+00 0. -1.
        -12    1    5    5    0    0 -0.25363492229E+02  0.91206108117E+01 -0.19680059081E+03  0.19863777291E+03  0.00000000000E+00 0. -1.
<mgrwt>
<rscale>  0 0.12499866E+03</rscale>
<asrwt>0</asrwt>
<pdfrwt beam="1">  1       21 0.13774821E-02 0.12499866E+03</pdfrwt>
<pdfrwt beam="2">  1       21 0.67117858E-01 0.12499866E+03</pdfrwt>
<totfact> 0.45181204E+06</totfact>
</mgrwt>
</event>
<event>
 9    1  0.4458519E-002  0.1250001E+03  0.7818608E-02  0.1235069E+00
         21   -1    0    0  503  502  0.00000000000E+00  0.00000000000E+00  0.33487453523E+01  0.33487453523E+01  0.00000000000E+00 0. -1.
         21   -1    0    0  502  503 -0.00000000000E+00 -0.00000000000E+00 -0.11664828263E+04  0.11664828263E+04  0.00000000000E+00 0. -1.
         25    2    1    2    0    0  0.00000000000E+00  0.71054273576E-14 -0.11631340810E+04  0.11698315717E+04  0.12500006309E+03 0.  0.
    9000006    2    3    3    0    0  0.15644306852E+01  0.17407632979E+02 -0.57332673255E+03  0.57672263982E+03  0.59999899151E+02 0.  0.
    9000007    2    3    3    0    0 -0.15644306852E+01 -0.17407632979E+02 -0.58980734844E+03  0.59310893187E+03  0.60000197193E+02 0.  0.
          5    1    4    4  501    0 -0.47909453402E+01  0.20592621456E+01 -0.53050872214E+03  0.53055516960E+03  0.47000000000E+01 0.  1.
         -5    1    4    4    0  501  0.63553760254E+01  0.15348370834E+02 -0.42818010405E+02  0.46167470223E+02  0.47000000000E+01 0.  1.
         12    1    5    5    0    0  0.83432791187E+01  0.85082034930E+00 -0.52471804280E+03  0.52478505946E+03  0.00000000000E+00 0. -1.
        -12    1    5    5    0    0 -0.99077098038E+01 -0.18258453329E+02 -0.65089305644E+02  0.68323872407E+02  0.00000000000E+00 0. -1.
<mgrwt>
<rscale>  0 0.12500006E+03</rscale>
<asrwt>0</asrwt>
<pdfrwt beam="1">  1       21 0.51519076E-03 0.12500006E+03</pdfrwt>
<pdfrwt beam="2">  1       21 0.17945919E+00 0.12500006E+03</pdfrwt>
<totfact> 0.19755087E+06</totfact>
</mgrwt>
</event>
<event>
 9    1  0.4458519E-002  0.1249776E+03  0.7818608E-02  0.1235104E+00
         21   -1    0    0  503  502  0.00000000000E+00  0.00000000000E+00  0.23647848639E+02  0.23647848639E+02  0.00000000000E+00 0. -1.
         21   -1    0    0  502  503 -0.00000000000E+00 -0.00000000000E+00 -0.16512484200E+03  0.16512484200E+03  0.00000000000E+00 0. -1.
         25    2    1    2    0    0  0.00000000000E+00  0.35527136788E-14 -0.14147699336E+03  0.18877269064E+03  0.12497755431E+03 0.  0.
    9000006    2    3    3    0    0  0.42108344764E+01  0.13589964490E+02 -0.55456399785E+02  0.82932581903E+02  0.59999855018E+02 0.  0.
    9000007    2    3    3    0    0 -0.42108344764E+01 -0.13589964490E+02 -0.86020593575E+02  0.10584010874E+03  0.60001398620E+02 0.  0.
          5    1    4    4  501    0 -0.46827704031E+01  0.36249344430E+02 -0.34192650274E+02  0.50270972171E+02  0.47000000000E+01 0. -1.
         -5    1    4    4    0  501  0.88936048794E+01 -0.22659379940E+02 -0.21263749511E+02  0.32661609732E+02  0.47000000000E+01 0. -1.
         12    1    5    5    0    0 -0.11754461918E+02 -0.23681595040E+02 -0.92002596468E+01  0.27993393796E+02  0.00000000000E+00 0.  1.
        -12    1    5    5    0    0  0.75436274417E+01  0.10091630550E+02 -0.76820333929E+02  0.77846714941E+02  0.00000000000E+00 0.  1.
<mgrwt>
<rscale>  0 0.12497755E+03</rscale>
<asrwt>0</asrwt>
<pdfrwt beam="1">  1       21 0.36381305E-02 0.12497755E+03</pdfrwt>
<pdfrwt beam="2">  1       21 0.25403823E-01 0.12497755E+03</pdfrwt>
<totfact> 0.66196776E+06</totfact>
</mgrwt>
</event>
<event>
 9    1  0.4458519E-002  0.1249993E+03  0.7818608E-02  0.1235070E+00
         21   -1    0    0  503  502  0.00000000000E+00  0.00000000000E+00  0.83684902892E+02  0.83684902892E+02  0.00000000000E+00 0.  1.
         21   -1    0    0  502  503 -0.00000000000E+00 -0.00000000000E+00 -0.46677523455E+02  0.46677523455E+02  0.00000000000E+00 0.  1.
         25    2    1    2    0    0 -0.35527136788E-14  0.00000000000E+00  0.37007379437E+02  0.13036242635E+03  0.12499926428E+03 0.  0.
    9000006    2    3    3    0    0  0.15043575291E+02 -0.79225221507E+01  0.22775185648E+02  0.66396513506E+02  0.60005936454E+02 0.  0.
    9000007    2    3    3    0    0 -0.15043575291E+02  0.79225221507E+01  0.14232193789E+02  0.63965912841E+02  0.60000059590E+02 0.  0.
          5    1    4    4  501    0  0.40091954186E+01  0.97441690984E+01 -0.17412609979E+02  0.20888069935E+02  0.47000000000E+01 0.  1.
         -5    1    4    4    0  501  0.11034379872E+02 -0.17666691249E+02  0.40187795627E+02  0.45508443571E+02  0.47000000000E+01 0.  1.
         12    1    5    5    0    0 -0.37572049967E+02 -0.18115587903E+01  0.60674848425E+01  0.38101903578E+02  0.00000000000E+00 0.  1.
        -12    1    5    5    0    0  0.22528474676E+02  0.97340809410E+01  0.81647089469E+01  0.25864009263E+02  0.00000000000E+00 0.  1.
<mgrwt>
<rscale>  0 0.12499926E+03</rscale>
<asrwt>0</asrwt>
<pdfrwt beam="1">  1       21 0.12874600E-01 0.12499926E+03</pdfrwt>
<pdfrwt beam="2">  1       21 0.71811574E-02 0.12499926E+03</pdfrwt>
<totfact> 0.73317893E+06</totfact>
</mgrwt>
</event>
<event>
 9    1  0.4458519E-002  0.1250005E+03  0.7818608E-02  0.1235068E+00
         21   -1    0    0  503  502  0.00000000000E+00  0.00000000000E+00  0.67645054432E+02  0.67645054432E+02  0.00000000000E+00 0. -1.
         21   -1    0    0  502  503 -0.00000000000E+00 -0.00000000000E+00 -0.57746769794E+02  0.57746769794E+02  0.00000000000E+00 0. -1.
         25    2    1    2    0    0  0.35527136788E-14 -0.35527136788E-14  0.98982846380E+01  0.12539182423E+03  0.12500053417E+03 0.  0.
    9000006    2    3    3    0    0  0.45791983249E+01  0.16850802078E+02  0.61344825006E+01  0.62789399931E+02  0.59999652334E+02 0.  0.
    9000007    2    3    3    0    0 -0.45791983249E+01 -0.16850802078E+02  0.37638021373E+01  0.62602424295E+02  0.59999822776E+02 0.  0.
          5    1    4    4  501    0  0.22883785527E+02  0.75696448776E+01 -0.18233012900E+02  0.30585943226E+02  0.47000000000E+01 0. -1.
         -5    1    4    4    0  501 -0.18304587203E+02  0.92811572000E+01  0.24367495401E+02  0.32203456705E+02  0.47000000000E+01 0. -1.
         12    1    5    5    0    0  0.18393590654E+02 -0.16158192441E+02 -0.18436335906E+02  0.30648162127E+02  0.00000000000E+00 0.  1.
        -12    1    5    5    0    0 -0.22972788979E+02 -0.69260963666E+00  0.22200138043E+02  0.31954262168E+02  0.00000000000E+00 0.  1.
<mgrwt>
<rscale>  0 0.12500053E+03</rscale>
<asrwt>0</asrwt>
<pdfrwt beam="1">  1       21 0.10406931E-01 0.12500053E+03</pdfrwt>
<pdfrwt beam="2">  1       21 0.88841185E-02 0.12500053E+03</pdfrwt>
<totfact> 0.73989554E+06</totfact>
</mgrwt>
</event>
<event>
 9    1  0.4458519E-002  0.1249806E+03  0.7818608E-02  0.1235100E+00
         21   -1    0    0  503  502  0.00000000000E+00  0.00000000000E+00  0.18286253608E+02  0.18286253608E+02  0.00000000000E+00 0. -1.
         21   -1    0    0  502  503 -0.00000000000E+00 -0.00000000000E+00 -0.21355060577E+03  0.21355060577E+03  0.00000000000E+00 0. -1.
         25    2    1    2    0    0  0.00000000000E+00  0.17763568394E-14 -0.19526435216E+03  0.23183685938E+03  0.12498064707E+03 0.  0.
    9000006    2    3    3    0    0  0.10035859438E+02  0.38845396183E+01 -0.12315460325E+03  0.13741446903E+03  0.59998932290E+02 0.  0.
    9000007    2    3    3    0    0 -0.10035859438E+02 -0.38845396183E+01 -0.72109748915E+02  0.94422390346E+02  0.59999698227E+02 0.  0.
          5    1    4    4  501    0 -0.17275119592E+02 -0.17758423745E+02 -0.42318619126E+02  0.49262022853E+02  0.47000000000E+01 0. -1.
         -5    1    4    4    0  501  0.27310979030E+02  0.21642963363E+02 -0.80835984120E+02  0.88152446179E+02  0.47000000000E+01 0. -1.
         12    1    5    5    0    0 -0.23853688717E+02 -0.88412815283E+01 -0.52571476258E+01  0.25976996085E+02  0.00000000000E+00 0. -1.
        -12    1    5    5    0    0  0.13817829279E+02  0.49567419100E+01 -0.66852601289E+02  0.68445394260E+02  0.00000000000E+00 0. -1.
<mgrwt>
<rscale>  0 0.12498065E+03</rscale>
<asrwt>0</asrwt>
<pdfrwt beam="1">  1       21 0.28132697E-02 0.12498065E+03</pdfrwt>
<pdfrwt beam="2">  1       21 0.32853940E-01 0.12498065E+03</pdfrwt>
<totfact> 0.61661769E+06</totfact>
</mgrwt>
</event>
<event>
 9    1  0.4458519E-002  0.1249990E+03  0.7818608E-02  0.1235071E+00
         21   -1    0    0  503  502  0.00000000000E+00  0.00000000000E+00  0.15909571729E+04  0.15909571729E+04  0.00000000000E+00 0. -1.
         21   -1    0    0  502  503 -0.00000000000E+00 -0.00000000000E+00 -0.24552434529E+01  0.24552434529E+01  0.00000000000E+00 0. -1.
         25    2    1    2    0    0 -0.35527136788E-14  0.00000000000E+00  0.15885019294E+04  0.15934124163E+04  0.12499899492E+03 0.  0.
    9000006    2    3    3    0    0  0.59656998622E+00  0.12380370584E+02  0.95172042292E+03  0.95369039700E+03  0.59999837131E+02 0.  0.
    9000007    2    3    3    0    0 -0.59656998622E+00 -0.12380370584E+02  0.63678150649E+03  0.63972201932E+03  0.59999545983E+02 0.  0.
          5    1    4    4  501    0  0.27511019082E+02  0.13186182049E+02  0.65062986788E+03  0.65136168643E+03  0.47000000000E+01 0. -1.
         -5    1    4    4    0  501 -0.26914449096E+02 -0.80581146585E+00  0.30109055504E+03  0.30232871057E+03  0.47000000000E+01 0. -1.
         12    1    5    5    0    0  0.27894990478E+02  0.19713178058E+01  0.23055231308E+03  0.23224208416E+03  0.00000000000E+00 0. -1.
        -12    1    5    5    0    0 -0.28491560464E+02 -0.14351688389E+02  0.40622919341E+03  0.40747993516E+03  0.00000000000E+00 0. -1.
<mgrwt>
<rscale>  0 0.12499899E+03</rscale>
<asrwt>0</asrwt>
<pdfrwt beam="1">  1       21 0.24476182E+00 0.12499899E+03</pdfrwt>
<pdfrwt beam="2">  1       21 0.37773103E-03 0.12499899E+03</pdfrwt>
<totfact> 0.12663771E+06</totfact>
</mgrwt>
</event>
<event>
 9    1  0.4458519E-002  0.1249999E+03  0.7818608E-02  0.1235069E+00
         21   -1    0    0  503  502  0.00000000000E+00  0.00000000000E+00  0.13901041990E+03  0.13901041990E+03  0.00000000000E+00 0. -1.
         21   -1    0    0  502  503 -0.00000000000E+00 -0.00000000000E+00 -0.28100356315E+02  0.28100356315E+02  0.00000000000E+00 0. -1.
         25    2    1    2    0    0  0.00000000000E+00 -0.17763568394E-14  0.11091006358E+03  0.16711077621E+03  0.12499987729E+03 0.  0.
    9000006    2    3    3    0    0  0.98765456716E+01  0.77320475630E+01  0.39140725525E+02  0.72728019206E+02  0.60000313908E+02 0.  0.
    9000007    2    3    3    0    0 -0.98765456716E+01 -0.77320475630E+01  0.71769338058E+02  0.94382757008E+02  0.59999468508E+02 0.  0.
          5    1    4    4  501    0  0.33202484986E+01 -0.24790645753E+02  0.72318348127E+01  0.26457316600E+02  0.47000000000E+01 0. -1.
         -5    1    4    4    0  501  0.65562971730E+01  0.32522693316E+02  0.31908890712E+02  0.46270702606E+02  0.47000000000E+01 0. -1.
         12    1    5    5    0    0  0.25162817813E+02 -0.62042843763E+01  0.35219162409E+02  0.43726993331E+02  0.00000000000E+00 0.  1.
        -12    1    5    5    0    0 -0.35039363485E+02 -0.15277631867E+01  0.36550175649E+02  0.50655763677E+02  0.00000000000E+00 0.  1.
<mgrwt>
<rscale>  0 0.12499988E+03</rscale>
<asrwt>0</asrwt>
<pdfrwt beam="1">  1       21 0.21386218E-01 0.12499988E+03</pdfrwt>
<pdfrwt beam="2">  1       21 0.43231318E-02 0.12499988E+03</pdfrwt>
<totfact> 0.68661120E+06</totfact>
</mgrwt>
</event>
<event>
 9    1  0.4458519E-002  0.1250035E+03  0.7818608E-02  0.1235064E+00
         21   -1    0    0  503  502  0.00000000000E+00  0.00000000000E+00  0.39954691511E+03  0.39954691511E+03  0.00000000000E+00 0. -1.
         21   -1    0    0  502  503 -0.00000000000E+00 -0.00000000000E+00 -0.97772531027E+01  0.97772531027E+01  0.00000000000E+00 0. -1.
         25    2    1    2    0    0 -0.35527136788E-14 -0.35527136788E-14  0.38976966200E+03  0.40932416821E+03  0.12500354100E+03 0.  0.
    9000006    2    3    3    0    0  0.12547686429E+02  0.12170150146E+02  0.19813149301E+03  0.20775367812E+03  0.59999543851E+02 0.  0.
    9000007    2    3    3    0    0 -0.12547686429E+02 -0.12170150146E+02  0.19163816900E+03  0.20157049009E+03  0.59999313901E+02 0.  0.
          5    1    4    4  501    0  0.17971137843E+02  0.95076185680E+01  0.18287025439E+02  0.27746385451E+02  0.47000000000E+01 0.  1.
         -5    1    4    4    0  501 -0.54234514135E+01  0.26625315781E+01  0.17984446757E+03  0.18000729267E+03  0.47000000000E+01 0.  1.
         12    1    5    5    0    0  0.53174546924E+01 -0.33880522550E+02  0.10012519278E+03  0.10583581323E+03  0.00000000000E+00 0.  1.
        -12    1    5    5    0    0 -0.17865141121E+02  0.21710372404E+02  0.91512976220E+02  0.95734676862E+02  0.00000000000E+00 0.  1.
<mgrwt>
<rscale>  0 0.12500354E+03</rscale>
<asrwt>0</asrwt>
<pdfrwt beam="1">  1       21 0.61468744E-01 0.12500354E+03</pdfrwt>
<pdfrwt beam="2">  1       21 0.15041931E-02 0.12500354E+03</pdfrwt>
<totfact> 0.47424786E+06</totfact>
</mgrwt>
</event>
<event>
 9    1  0.4458519E-002  0.1249937E+03  0.7818608E-02  0.1235079E+00
         21   -1    0    0  503  502  0.00000000000E+00  0.00000000000E+00  0.29675784706E+03  0.29675784706E+03  0.00000000000E+00 0. -1.
         21   -1    0    0  502  503 -0.00000000000E+00 -0.00000000000E+00 -0.13161762817E+02  0.13161762817E+02  0.00000000000E+00 0. -1.
         25    2    1    2    0    0 -0.17763568394E-14  0.00000000000E+00  0.28359608424E+03  0.30991960988E+03  0.12499370219E+03 0.  0.
    9000006    2    3    3    0    0 -0.41273299954E+01 -0.45296727642E+01  0.10118593494E+03  0.11779720492E+03  0.60000293899E+02 0.  0.
    9000007    2    3    3    0    0  0.41273299954E+01  0.45296727642E+01  0.18241014930E+03  0.19212240496E+03  0.60000026094E+02 0.  0.
          5    1    4    4  501    0 -0.68874444257E+01 -0.31367317019E+02  0.47499342360E+02  0.57529322891E+02  0.47000000000E+01 0. -1.
         -5    1    4    4    0  501  0.27601144303E+01  0.26837644255E+02  0.53686592583E+02  0.60267882027E+02  0.47000000000E+01 0. -1.
         12    1    5    5    0    0  0.19103895448E+02  0.25752949862E+02  0.12604886016E+03  0.13006340145E+03  0.00000000000E+00 0. -1.
        -12    1    5    5    0    0 -0.14976565453E+02 -0.21223277098E+02  0.56361289135E+02  0.62059003509E+02  0.00000000000E+00 0. -1.
<mgrwt>
<rscale>  0 0.12499370E+03</rscale>
<asrwt>0</asrwt>
<pdfrwt beam="1">  1       21 0.45655048E-01 0.12499370E+03</pdfrwt>
<pdfrwt beam="2">  1       21 0.20248868E-02 0.12499370E+03</pdfrwt>
<totfact> 0.54650404E+06</totfact>
</mgrwt>
</event>
<event>
 9    1  0.4458519E-002  0.1250013E+03  0.7818608E-02  0.1235067E+00
         21   -1    0    0  503  502  0.00000000000E+00  0.00000000000E+00  0.44588602155E+02  0.44588602155E+02  0.00000000000E+00 0.  1.
         21   -1    0    0  502  503 -0.00000000000E+00 -0.00000000000E+00 -0.87608247146E+02  0.87608247146E+02  0.00000000000E+00 0.  1.
         25    2    1    2    0    0  0.00000000000E+00 -0.17763568394E-14 -0.43019644991E+02  0.13219684930E+03  0.12500126843E+03 0.  0.
    9000006    2    3    3    0    0  0.77135622114E+01 -0.14707655304E+02 -0.27363295473E+02  0.68004310567E+02  0.60000184583E+02 0.  0.
    9000007    2    3    3    0    0 -0.77135622114E+01  0.14707655304E+02 -0.15656349518E+02  0.64192538734E+02  0.59997888149E+02 0.  0.
          5    1    4    4  501    0  0.27568054604E+02 -0.17967115691E+02 -0.32737854949E+02  0.46654817839E+02  0.47000000000E+01 0. -1.
         -5    1    4    4    0  501 -0.19854492392E+02  0.32594603871E+01  0.53745594763E+01  0.21349492728E+02  0.47000000000E+01 0. -1.
         12    1    5    5    0    0 -0.12045999914E+02  0.12819687578E+02 -0.37724316721E+02  0.41624206606E+02  0.00000000000E+00 0. -1.
        -12    1    5    5    0    0  0.43324377021E+01  0.18879677255E+01  0.22067967203E+02  0.22568332128E+02  0.00000000000E+00 0. -1.
<mgrwt>
<rscale>  0 0.12500127E+03</rscale>
<asrwt>0</asrwt>
<pdfrwt beam="1">  1       21 0.68597849E-02 0.12500127E+03</pdfrwt>
<pdfrwt beam="2">  1       21 0.13478192E-01 0.12500127E+03</pdfrwt>
<totfact> 0.73067472E+06</totfact>
</mgrwt>
</event>
<event>
 9    1  0.4458519E-002  0.1250165E+03  0.7818608E-02  0.1235043E+00
         21   -1    0    0  503  502  0.00000000000E+00  0.00000000000E+00  0.24753510084E+03  0.24753510084E+03  0.00000000000E+00 0. -1.
         21   -1    0    0  502  503 -0.00000000000E+00 -0.00000000000E+00 -0.15784761750E+02  0.15784761750E+02  0.00000000000E+00 0. -1.
         25    2    1    2    0    0  0.00000000000E+00 -0.17763568394E-14  0.23175033909E+03  0.26331986259E+03  0.12501652037E+03 0.  0.
    9000006    2    3    3    0    0 -0.80495111438E+01 -0.14060600212E+02  0.12997639323E+03  0.14407046002E+03  0.59999496220E+02 0.  0.
    9000007    2    3    3    0    0  0.80495111438E+01  0.14060600212E+02  0.10177394586E+03  0.11924940257E+03  0.59999907068E+02 0.  0.
          5    1    4    4  501    0 -0.23961360153E+02  0.14998811106E+02  0.62180513004E+02  0.68466176412E+02  0.47000000000E+01 0. -1.
         -5    1    4    4    0  501  0.15911849009E+02 -0.29059411318E+02  0.67795880222E+02  0.75604283609E+02  0.47000000000E+01 0. -1.
         12    1    5    5    0    0  0.28441370929E+02  0.24230329113E+02  0.47857880164E+02  0.60715707383E+02  0.00000000000E+00 0.  1.
        -12    1    5    5    0    0 -0.20391859785E+02 -0.10169728901E+02  0.53916065699E+02  0.58533695184E+02  0.00000000000E+00 0.  1.
<mgrwt>
<rscale>  0 0.12501652E+03</rscale>
<asrwt>0</asrwt>
<pdfrwt beam="1">  1       21 0.38082320E-01 0.12501652E+03</pdfrwt>
<pdfrwt beam="2">  1       21 0.24284251E-02 0.12501652E+03</pdfrwt>
<totfact> 0.58621925E+06</totfact>
</mgrwt>
</event>
<event>
 9    1  0.4458519E-002  0.1250019E+03  0.7818608E-02  0.1235066E+00
         21   -1    0    0  503  502  0.00000000000E+00  0.00000000000E+00  0.12289505313E+02  0.12289505313E+02  0.00000000000E+00 0. -1.
         21   -1    0    0  502  503 -0.00000000000E+00 -0.00000000000E+00 -0.31786228572E+03  0.31786228572E+03  0.00000000000E+00 0. -1.
         25    2    1    2    0    0  0.17763568394E-14  0.00000000000E+00 -0.30557278041E+03  0.33015179103E+03  0.12500192397E+03 0.  0.
    9000006    2    3    3    0    0  0.64684481754E+01 -0.72000299805E+00 -0.19568485676E+03  0.20478061737E+03  0.60001490476E+02 0.  0.
    9000007    2    3    3    0    0 -0.64684481754E+01  0.72000299805E+00 -0.10988792365E+03  0.12537117366E+03  0.60001801604E+02 0.  0.
          5    1    4    4  501    0 -0.10510178944E+02  0.24743004850E+02 -0.11881780457E+03  0.12191161074E+03  0.47000000000E+01 0.  1.
         -5    1    4    4    0  501  0.16978627119E+02 -0.25463007848E+02 -0.76867052186E+02  0.82869006626E+02  0.47000000000E+01 0.  1.
         12    1    5    5    0    0 -0.11566327687E+02  0.27972327405E+01  0.30618246443E+01  0.12287360063E+02  0.00000000000E+00 0. -1.
        -12    1    5    5    0    0  0.50978795117E+01 -0.20772297424E+01 -0.11294974829E+03  0.11308381360E+03  0.00000000000E+00 0. -1.
<mgrwt>
<rscale>  0 0.12500192E+03</rscale>
<asrwt>0</asrwt>
<pdfrwt beam="1">  1       21 0.18906931E-02 0.12500192E+03</pdfrwt>
<pdfrwt beam="2">  1       21 0.48901890E-01 0.12500192E+03</pdfrwt>
<totfact> 0.53035985E+06</totfact>
</mgrwt>
</event>
<event>
 9    1  0.4458519E-002  0.1250017E+03  0.7818608E-02  0.1235067E+00
         21   -1    0    0  503  502  0.00000000000E+00  0.00000000000E+00  0.30468848110E+03  0.30468848110E+03  0.00000000000E+00 0.  1.
         21   -1    0    0  502  503 -0.00000000000E+00 -0.00000000000E+00 -0.12820811956E+02  0.12820811956E+02  0.00000000000E+00 0.  1.
         25    2    1    2    0    0 -0.35527136788E-14 -0.35527136788E-14  0.29186766915E+03  0.31750929306E+03  0.12500165953E+03 0.  0.
    9000006    2    3    3    0    0 -0.30619471030E+01  0.12110121365E+02  0.17707661465E+03  0.18738247462E+03  0.60000281478E+02 0.  0.
    9000007    2    3    3    0    0  0.30619471030E+01 -0.12110121365E+02  0.11479105449E+03  0.13012681844E+03  0.59999767716E+02 0.  0.
          5    1    4    4  501    0  0.18373925304E+02 -0.11758161822E+02  0.33933453271E+02  0.40613110585E+02  0.47000000000E+01 0. -1.
         -5    1    4    4    0  501 -0.21435872407E+02  0.23868283187E+02  0.14314316138E+03  0.14676936403E+03  0.47000000000E+01 0. -1.
         12    1    5    5    0    0  0.21498658171E+02 -0.28592339186E+02  0.57407346703E+02  0.67641094157E+02  0.00000000000E+00 0.  1.
        -12    1    5    5    0    0 -0.18436711068E+02  0.16482217821E+02  0.57383707790E+02  0.62485724282E+02  0.00000000000E+00 0.  1.
<mgrwt>
<rscale>  0 0.12500166E+03</rscale>
<asrwt>0</asrwt>
<pdfrwt beam="1">  1       21 0.46875145E-01 0.12500166E+03</pdfrwt>
<pdfrwt beam="2">  1       21 0.19724328E-02 0.12500166E+03</pdfrwt>
<totfact> 0.54029063E+06</totfact>
</mgrwt>
</event>
<event>
 9    1  0.4458519E-002  0.1250038E+03  0.7818608E-02  0.1235063E+00
         21   -1    0    0  503  502  0.00000000000E+00  0.00000000000E+00  0.21500815135E+02  0.21500815135E+02  0.00000000000E+00 0. -1.
         21   -1    0    0  502  503 -0.00000000000E+00 -0.00000000000E+00 -0.18169012175E+03  0.18169012175E+03  0.00000000000E+00 0. -1.
         25    2    1    2    0    0  0.17763568394E-14  0.35527136788E-14 -0.16018930661E+03  0.20319093688E+03  0.12500377146E+03 0.  0.
    9000006    2    3    3    0    0  0.98743884934E+01  0.10318212711E+02 -0.96548700209E+02  0.11456758122E+03  0.60000917427E+02 0.  0.
    9000007    2    3    3    0    0 -0.98743884934E+01 -0.10318212711E+02 -0.63640606405E+02  0.88623355667E+02  0.60000027704E+02 0.  0.
          5    1    4    4  501    0  0.24061790315E+02  0.25282478012E+02 -0.35696515612E+02  0.50144836967E+02  0.47000000000E+01 0.  1.
         -5    1    4    4    0  501 -0.14187401822E+02 -0.14964265301E+02 -0.60852184597E+02  0.64422744250E+02  0.47000000000E+01 0.  1.
         12    1    5    5    0    0 -0.80011623356E+01 -0.34782545450E+02 -0.28047548555E+02  0.45392830344E+02  0.00000000000E+00 0.  1.
        -12    1    5    5    0    0 -0.18732261579E+01  0.24464332739E+02 -0.35593057850E+02  0.43230525323E+02  0.00000000000E+00 0.  1.
<mgrwt>
<rscale>  0 0.12500377E+03</rscale>
<asrwt>0</asrwt>
<pdfrwt beam="1">  1       21 0.33078180E-02 0.12500377E+03</pdfrwt>
<pdfrwt beam="2">  1       21 0.27952324E-01 0.12500377E+03</pdfrwt>
<totfact> 0.64576961E+06</totfact>
</mgrwt>
</event>
<event>
 9    1  0.4458519E-002  0.1249978E+03  0.7818608E-02  0.1235073E+00
         21   -1    0    0  503  502  0.00000000000E+00  0.00000000000E+00  0.22316471047E+03  0.22316471047E+03  0.00000000000E+00 0. -1.
         21   -1    0    0  502  503 -0.00000000000E+00 -0.00000000000E+00 -0.17503268956E+02  0.17503268956E+02  0.00000000000E+00 0. -1.
         25    2    1    2    0    0  0.00000000000E+00  0.17763568394E-14  0.20566144151E+03  0.24066797942E+03  0.12499779116E+03 0.  0.
    9000006    2    3    3    0    0 -0.12648378121E+02 -0.42154572006E+01  0.12464502613E+03  0.13897540185E+03  0.60000235265E+02 0.  0.
    9000007    2    3    3    0    0  0.12648378121E+02  0.42154572006E+01  0.81016415379E+02  0.10169257757E+03  0.59999743532E+02 0.  0.
          5    1    4    4  501    0 -0.12229166464E+02 -0.23501548235E+01  0.13052896599E+03  0.13120585620E+03  0.47000000000E+01 0.  1.
         -5    1    4    4    0  501 -0.41921165617E+00 -0.18653023771E+01 -0.58839398553E+01  0.77695456490E+01  0.47000000000E+01 0.  1.
         12    1    5    5    0    0  0.36545691315E+01 -0.15932677259E+02 -0.13690331631E+01  0.16403668247E+02  0.00000000000E+00 0.  1.
        -12    1    5    5    0    0  0.89938089890E+01  0.20148134459E+02  0.82385448542E+02  0.85288909325E+02  0.00000000000E+00 0.  1.
<mgrwt>
<rscale>  0 0.12499779E+03</rscale>
<asrwt>0</asrwt>
<pdfrwt beam="1">  1       21 0.34333030E-01 0.12499779E+03</pdfrwt>
<pdfrwt beam="2">  1       21 0.26928108E-02 0.12499779E+03</pdfrwt>
<totfact> 0.60771471E+06</totfact>
</mgrwt>
</event>
<event>
 9    1  0.4458519E-002  0.1249995E+03  0.7818608E-02  0.1235070E+00
         21   -1    0    0  503  502  0.00000000000E+00  0.00000000000E+00  0.61375096278E+01  0.61375096278E+01  0.00000000000E+00 0. -1.
         21   -1    0    0  502  503 -0.00000000000E+00 -0.00000000000E+00 -0.63645040392E+03  0.63645040392E+03  0.00000000000E+00 0. -1.
         25    2    1    2    0    0 -0.17763568394E-14 -0.17763568394E-14 -0.63031289429E+03  0.64258791355E+03  0.12499952771E+03 0.  0.
    9000006    2    3    3    0    0  0.70089588100E+01  0.15001703415E+02 -0.34425245543E+03  0.34983438661E+03  0.60001403115E+02 0.  0.
    9000007    2    3    3    0    0 -0.70089588100E+01 -0.15001703415E+02 -0.28606043886E+03  0.29275352694E+03  0.59998968691E+02 0.  0.
          5    1    4    4  501    0  0.24401017162E+02  0.26992925144E+02 -0.27035269819E+03  0.27283089830E+03  0.47000000000E+01 0. -1.
         -5    1    4    4    0  501 -0.17392058352E+02 -0.11991221729E+02 -0.73899757234E+02  0.77003488307E+02  0.47000000000E+01 0. -1.
         12    1    5    5    0    0  0.10878259565E+02 -0.13652123527E+02 -0.21998122078E+02  0.28082634900E+02  0.00000000000E+00 0.  1.
        -12    1    5    5    0    0 -0.17887218375E+02 -0.13495798880E+01 -0.26406231679E+03  0.26467089204E+03  0.00000000000E+00 0.  1.
<mgrwt>
<rscale>  0 0.12499953E+03</rscale>
<asrwt>0</asrwt>
<pdfrwt beam="1">  1       21 0.94423267E-03 0.12499953E+03</pdfrwt>
<pdfrwt beam="2">  1       21 0.97915403E-01 0.12499953E+03</pdfrwt>
<totfact> 0.35235111E+06</totfact>
</mgrwt>
</event>
<event>
 9    1  0.4458519E-002  0.1250029E+03  0.7818608E-02  0.1235065E+00
         21   -1    0    0  503  502  0.00000000000E+00  0.00000000000E+00  0.12938400360E+03  0.12938400360E+03  0.00000000000E+00 0.  1.
         21   -1    0    0  502  503 -0.00000000000E+00 -0.00000000000E+00 -0.30192542054E+02  0.30192542054E+02  0.00000000000E+00 0.  1.
         25    2    1    2    0    0 -0.17763568394E-14  0.00000000000E+00  0.99191461546E+02  0.15957654565E+03  0.12500291148E+03 0.  0.
    9000006    2    3    3    0    0 -0.48115937037E+01 -0.15935233166E+02  0.42684917186E+02  0.75492183934E+02  0.59999871582E+02 0.  0.
    9000007    2    3    3    0    0  0.48115937037E+01  0.15935233166E+02  0.56506544360E+02  0.84084361721E+02  0.60000893664E+02 0.  0.
          5    1    4    4  501    0  0.30531884544E+01  0.14575372408E+02  0.40678066759E+02  0.43572451800E+02  0.47000000000E+01 0.  1.
         -5    1    4    4    0  501 -0.78647821581E+01 -0.30510605574E+02  0.20068504264E+01  0.31919732134E+02  0.47000000000E+01 0.  1.
         12    1    5    5    0    0  0.11974897636E+02  0.35574889627E+02  0.49318000860E+02  0.61977706913E+02  0.00000000000E+00 0. -1.
        -12    1    5    5    0    0 -0.71633039322E+01 -0.19639656461E+02  0.71885435002E+01  0.22106654808E+02  0.00000000000E+00 0. -1.
<mgrwt>
<rscale>  0 0.12500291E+03</rscale>
<asrwt>0</asrwt>
<pdfrwt beam="1">  1       21 0.19905231E-01 0.12500291E+03</pdfrwt>
<pdfrwt beam="2">  1       21 0.46450065E-02 0.12500291E+03</pdfrwt>
<totfact> 0.69566125E+06</totfact>
</mgrwt>
</event>
<event>
 9    1  0.4458519E-002  0.1250043E+03  0.7818608E-02  0.1235062E+00
         21   -1    0    0  503  502  0.00000000000E+00  0.00000000000E+00  0.37371356741E+03  0.37371356741E+03  0.00000000000E+00 0.  1.
         21   -1    0    0  502  503 -0.00000000000E+00 -0.00000000000E+00 -0.10453251240E+02  0.10453251240E+02  0.00000000000E+00 0.  1.
         25    2    1    2    0    0  0.00000000000E+00  0.00000000000E+00  0.36326031617E+03  0.38416681865E+03  0.12500434892E+03 0.  0.
    9000006    2    3    3    0    0 -0.37641455921E+01 -0.16612514189E+02  0.19405927960E+03  0.20383611818E+03  0.60000122143E+02 0.  0.
    9000007    2    3    3    0    0  0.37641455921E+01  0.16612514189E+02  0.16920103657E+03  0.18033070047E+03  0.60000219458E+02 0.  0.
          5    1    4    4  501    0  0.26972410435E+02 -0.50203218659E+01  0.67865128524E+02  0.73351756801E+02  0.47000000000E+01 0.  1.
         -5    1    4    4    0  501 -0.30736556027E+02 -0.11592192323E+02  0.12619415107E+03  0.13048436138E+03  0.47000000000E+01 0.  1.
         12    1    5    5    0    0  0.26740484341E+02  0.22755655757E+02  0.12829528647E+03  0.13301335986E+03  0.00000000000E+00 0.  1.
        -12    1    5    5    0    0 -0.22976338748E+02 -0.61431415687E+01  0.40905750102E+02  0.47317340606E+02  0.00000000000E+00 0.  1.
<mgrwt>
<rscale>  0 0.12500435E+03</rscale>
<asrwt>0</asrwt>
<pdfrwt beam="1">  1       21 0.57494385E-01 0.12500435E+03</pdfrwt>
<pdfrwt beam="2">  1       21 0.16081928E-02 0.12500435E+03</pdfrwt>
<totfact> 0.49104252E+06</totfact>
</mgrwt>
</event>
<event>
 9    1  0.4458519E-002  0.1250001E+03  0.7818608E-02  0.1235069E+00
         21   -1    0    0  503  502  0.00000000000E+00  0.00000000000E+00  0.91287834112E+02  0.91287834112E+02  0.00000000000E+00 0.  1.
         21   -1    0    0  502  503 -0.00000000000E+00 -0.00000000000E+00 -0.42790531064E+02  0.42790531064E+02  0.00000000000E+00 0.  1.
         25    2    1    2    0    0  0.00000000000E+00  0.00000000000E+00  0.48497303047E+02  0.13407836518E+03  0.12500007842E+03 0.  0.
    9000006    2    3    3    0    0 -0.35883802406E+01  0.48683812817E+01  0.41892958580E+02  0.73427367871E+02  0.59999839707E+02 0.  0.
    9000007    2    3    3    0    0  0.35883802406E+01 -0.48683812817E+01  0.66043444673E+01  0.60650997305E+02  0.59986235914E+02 0.  0.
          5    1    4    4  501    0  0.16626576701E+02  0.25273325867E+02  0.26561544542E+02  0.40531342213E+02  0.47000000000E+01 0.  1.
         -5    1    4    4    0  501 -0.20214956941E+02 -0.20404944585E+02  0.15331414038E+02  0.32896025658E+02  0.47000000000E+01 0.  1.
         12    1    5    5    0    0  0.22029588306E+02 -0.21152298391E+02 -0.86023545551E+01  0.31728898375E+02  0.00000000000E+00 0. -1.
        -12    1    5    5    0    0 -0.18441208066E+02  0.16283917110E+02  0.15206699022E+02  0.28922098930E+02  0.00000000000E+00 0. -1.
<mgrwt>
<rscale>  0 0.12500008E+03</rscale>
<asrwt>0</asrwt>
<pdfrwt beam="1">  1       21 0.14044282E-01 0.12500008E+03</pdfrwt>
<pdfrwt beam="2">  1       21 0.65831586E-02 0.12500008E+03</pdfrwt>
<totfact> 0.72818590E+06</totfact>
</mgrwt>
</event>
<event>
 9    1  0.4458519E-002  0.1250167E+03  0.7818608E-02  0.1235043E+00
         21   -1    0    0  503  502  0.00000000000E+00  0.00000000000E+00  0.11691107606E+04  0.11691107606E+04  0.00000000000E+00 0. -1.
         21   -1    0    0  502  503 -0.00000000000E+00 -0.00000000000E+00 -0.33421066596E+01  0.33421066596E+01  0.00000000000E+00 0. -1.
         25    2    1    2    0    0 -0.35527136788E-14  0.17763568394E-14  0.11657686540E+04  0.11724528673E+04  0.12501668463E+03 0.  0.
    9000006    2    3    3    0    0  0.14120518574E+02  0.23089618471E+01  0.67786168896E+03  0.68066232145E+03  0.60000051176E+02 0.  0.
    9000007    2    3    3    0    0 -0.14120518574E+02 -0.23089618471E+01  0.48790696503E+03  0.49179054586E+03  0.60000117631E+02 0.  0.
          5    1    4    4  501    0 -0.70710120223E+01  0.15210062114E+02  0.65393029210E+02  0.67673358642E+02  0.47000000000E+01 0. -1.
         -5    1    4    4    0  501  0.21191530596E+02 -0.12901100267E+02  0.61246865975E+03  0.61298896281E+03  0.47000000000E+01 0. -1.
         12    1    5    5    0    0  0.18136198140E+02  0.16299401450E+02  0.20367227105E+03  0.20512675634E+03  0.00000000000E+00 0.  1.
        -12    1    5    5    0    0 -0.32256716714E+02 -0.18608363297E+02  0.28423469398E+03  0.28666378952E+03  0.00000000000E+00 0.  1.
<mgrwt>
<rscale>  0 0.12501668E+03</rscale>
<asrwt>0</asrwt>
<pdfrwt beam="1">  1       21 0.17986287E+00 0.12501668E+03</pdfrwt>
<pdfrwt beam="2">  1       21 0.51417119E-03 0.12501668E+03</pdfrwt>
<totfact> 0.19693049E+06</totfact>
</mgrwt>
</event>
<event>
 9    1  0.4458519E-002  0.1250028E+03  0.7818608E-02  0.1235065E+00
         21   -1    0    0  503  502  0.00000000000E+00  0.00000000000E+00  0.50572752164E+02  0.50572752164E+02  0.00000000000E+00 0. -1.
         21   -1    0    0  502  503 -0.00000000000E+00 -0.00000000000E+00 -0.77243619170E+02  0.77243619170E+02  0.00000000000E+00 0. -1.
         25    2    1    2    0    0  0.88817841970E-15  0.00000000000E+00 -0.26670867006E+02  0.12781637133E+03  0.12500275851E+03 0.  0.
    9000006    2    3    3    0    0  0.23501356442E+01 -0.17356245166E+02 -0.13531723856E+02  0.63952746200E+02  0.60000698431E+02 0.  0.
    9000007    2    3    3    0    0 -0.23501356442E+01  0.17356245166E+02 -0.13139143150E+02  0.63863625134E+02  0.59993025834E+02 0.  0.
          5    1    4    4  501    0  0.14520629139E+02 -0.13471653956E+02  0.19522331466E+02  0.28205417153E+02  0.47000000000E+01 0.  1.
         -5    1    4    4    0  501 -0.12170493495E+02 -0.38845912103E+01 -0.33054055322E+02  0.35747329047E+02  0.47000000000E+01 0.  1.
         12    1    5    5    0    0  0.10979107289E+01  0.20854244980E+02  0.20856860138E+02  0.29514632921E+02  0.00000000000E+00 0. -1.
        -12    1    5    5    0    0 -0.34480463732E+01 -0.34979998138E+01 -0.33996003288E+02  0.34348992213E+02  0.00000000000E+00 0. -1.
<mgrwt>
<rscale>  0 0.12500276E+03</rscale>
<asrwt>0</asrwt>
<pdfrwt beam="1">  1       21 0.77804234E-02 0.12500276E+03</pdfrwt>
<pdfrwt beam="2">  1       21 0.11883634E-01 0.12500276E+03</pdfrwt>
<totfact> 0.73653193E+06</totfact>
</mgrwt>
</event>
<event>
 9    1  0.4458519E-002  0.1250026E+03  0.7818608E-02  0.1235065E+00
         21   -1    0    0  503  502  0.00000000000E+00  0.00000000000E+00  0.17367625463E+02  0.17367625463E+02  0.00000000000E+00 0.  1.
         21   -1    0    0  502  503 -0.00000000000E+00 -0.00000000000E+00 -0.22492490527E+03  0.22492490527E+03  0.00000000000E+00 0.  1.
         25    2    1    2    0    0  0.17763568394E-14 -0.35527136788E-14 -0.20755727980E+03  0.24229253073E+03  0.12500258416E+03 0.  0.
    9000006    2    3    3    0    0  0.66107437943E+01  0.11986368200E+02 -0.12492683543E+03  0.13926232192E+03  0.59999209490E+02 0.  0.
    9000007    2    3    3    0    0 -0.66107437943E+01 -0.11986368200E+02 -0.82630444368E+02  0.10303020881E+03  0.60000488615E+02 0.  0.
          5    1    4    4  501    0 -0.10958474343E+02 -0.33803494712E+01 -0.11097719476E+03  0.11166710652E+03  0.47000000000E+01 0. -1.
         -5    1    4    4    0  501  0.17569218138E+02  0.15366717672E+02 -0.13949640673E+02  0.27595215398E+02  0.47000000000E+01 0. -1.
         12    1    5    5    0    0 -0.17139841655E+02 -0.31042884266E+02 -0.31396468621E+02  0.47362148150E+02  0.00000000000E+00 0.  1.
        -12    1    5    5    0    0  0.10529097861E+02  0.19056516066E+02 -0.51233975747E+02  0.55668060656E+02  0.00000000000E+00 0.  1.
<mgrwt>
<rscale>  0 0.12500258E+03</rscale>
<asrwt>0</asrwt>
<pdfrwt beam="1">  1       21 0.26719424E-02 0.12500258E+03</pdfrwt>
<pdfrwt beam="2">  1       21 0.34603831E-01 0.12500258E+03</pdfrwt>
<totfact> 0.60607572E+06</totfact>
</mgrwt>
</event>
<event>
 9    1  0.4458519E-002  0.1250007E+03  0.7818608E-02  0.1235068E+00
         21   -1    0    0  503  502  0.00000000000E+00  0.00000000000E+00  0.20977692487E+04  0.20977692487E+04  0.00000000000E+00 0. -1.
         21   -1    0    0  502  503 -0.00000000000E+00 -0.00000000000E+00 -0.18621184015E+01  0.18621184015E+01  0.00000000000E+00 0. -1.
         25    2    1    2    0    0  0.35527136788E-14  0.17763568394E-14  0.20959071303E+04  0.20996313671E+04  0.12500071552E+03 0.  0.
    9000006    2    3    3    0    0  0.84313049541E+01 -0.54459377890E+01  0.80717123808E+03  0.80946046186E+03  0.60000721464E+02 0.  0.
    9000007    2    3    3    0    0 -0.84313049541E+01  0.54459377890E+01  0.12887358922E+04  0.12901709053E+04  0.60000164325E+02 0.  0.
          5    1    4    4  501    0  0.29133103015E+02 -0.69775080673E+01  0.24254307293E+03  0.24443129001E+03  0.47000000000E+01 0. -1.
         -5    1    4    4    0  501 -0.20701798061E+02  0.15315702783E+01  0.56462816515E+03  0.56502917184E+03  0.47000000000E+01 0. -1.
         12    1    5    5    0    0  0.16865830327E+02  0.50477945955E+01  0.13323753450E+03  0.13439559912E+03  0.00000000000E+00 0. -1.
        -12    1    5    5    0    0 -0.25297135282E+02  0.39814319352E+00  0.11554983577E+04  0.11557753062E+04  0.00000000000E+00 0. -1.
<mgrwt>
<rscale>  0 0.12500072E+03</rscale>
<asrwt>0</asrwt>
<pdfrwt beam="1">  1       21 0.32273184E+00 0.12500072E+03</pdfrwt>
<pdfrwt beam="2">  1       21 0.28648143E-03 0.12500072E+03</pdfrwt>
<totfact> 0.70168020E+05</totfact>
</mgrwt>
</event>
<event>
 9    1  0.4458519E-002  0.1250021E+03  0.7818608E-02  0.1235066E+00
         21   -1    0    0  503  502  0.00000000000E+00  0.00000000000E+00  0.40361512877E+02  0.40361512877E+02  0.00000000000E+00 0. -1.
         21   -1    0    0  502  503 -0.00000000000E+00 -0.00000000000E+00 -0.96784784912E+02  0.96784784912E+02  0.00000000000E+00 0. -1.
         25    2    1    2    0    0  0.35527136788E-14  0.44408920985E-15 -0.56423272035E+02  0.13714629779E+03  0.12500208546E+03 0.  0.
    9000006    2    3    3    0    0 -0.16686371048E+02  0.16662367802E+01 -0.22680766573E+02  0.66298395341E+02  0.59998739393E+02 0.  0.
    9000007    2    3    3    0    0  0.16686371048E+02 -0.16662367802E+01 -0.33742505461E+02  0.70847902448E+02  0.59997143955E+02 0.  0.
          5    1    4    4  501    0  0.21700979687E+01  0.18213471819E+02  0.12606604188E+02  0.22747666915E+02  0.47000000000E+01 0. -1.
         -5    1    4    4    0  501 -0.18856469017E+02 -0.16547235039E+02 -0.35287370762E+02  0.43550728427E+02  0.47000000000E+01 0. -1.
         12    1    5    5    0    0  0.38233346572E+02  0.27474692592E+01 -0.12626619413E+02  0.40358009059E+02  0.00000000000E+00 0. -1.
        -12    1    5    5    0    0 -0.21546975524E+02 -0.44137060394E+01 -0.21115886049E+02  0.30489893389E+02  0.00000000000E+00 0. -1.
<mgrwt>
<rscale>  0 0.12500209E+03</rscale>
<asrwt>0</asrwt>
<pdfrwt beam="1">  1       21 0.62094636E-02 0.12500209E+03</pdfrwt>
<pdfrwt beam="2">  1       21 0.14889967E-01 0.12500209E+03</pdfrwt>
<totfact> 0.72409665E+06</totfact>
</mgrwt>
</event>
<event>
 9    1  0.4458519E-002  0.1250007E+03  0.7818608E-02  0.1235068E+00
         21   -1    0    0  503  502  0.00000000000E+00  0.00000000000E+00  0.35021116977E+03  0.35021116977E+03  0.00000000000E+00 0. -1.
         21   -1    0    0  502  503 -0.00000000000E+00 -0.00000000000E+00 -0.11154111531E+02  0.11154111531E+02  0.00000000000E+00 0. -1.
         25    2    1    2    0    0  0.00000000000E+00  0.35527136788E-14  0.33905705823E+03  0.36136528130E+03  0.12500071115E+03 0.  0.
    9000006    2    3    3    0    0  0.12143189209E+02 -0.91034036912E+01  0.19472878481E+03  0.20432733152E+03  0.60000248096E+02 0.  0.
    9000007    2    3    3    0    0 -0.12143189209E+02  0.91034036912E+01  0.14432827343E+03  0.15703794977E+03  0.59999484628E+02 0.  0.
          5    1    4    4  501    0 -0.59880590294E+01  0.15677094215E+02  0.14248195010E+03  0.14354380599E+03  0.47000000000E+01 0. -1.
         -5    1    4    4    0  501  0.18131248238E+02 -0.24780497906E+02  0.52246834707E+02  0.60783525532E+02  0.47000000000E+01 0. -1.
         12    1    5    5    0    0 -0.89769223485E+01 -0.25464341626E+02  0.69074693054E+02  0.74164216775E+02  0.00000000000E+00 0. -1.
        -12    1    5    5    0    0 -0.31662668606E+01  0.34567745318E+02  0.75253580374E+02  0.82873732999E+02  0.00000000000E+00 0. -1.
<mgrwt>
<rscale>  0 0.12500071E+03</rscale>
<asrwt>0</asrwt>
<pdfrwt beam="1">  1       21 0.53878633E-01 0.12500071E+03</pdfrwt>
<pdfrwt beam="2">  1       21 0.17160174E-02 0.12500071E+03</pdfrwt>
<totfact> 0.50708973E+06</totfact>
</mgrwt>
</event>
<event>
 9    1  0.4458519E-002  0.1249985E+03  0.7818608E-02  0.1235072E+00
         21   -1    0    0  503  502  0.00000000000E+00  0.00000000000E+00  0.28680197341E+02  0.28680197341E+02  0.00000000000E+00 0. -1.
         21   -1    0    0  502  503 -0.00000000000E+00 -0.00000000000E+00 -0.13619699352E+03  0.13619699352E+03  0.00000000000E+00 0. -1.
         25    2    1    2    0    0  0.00000000000E+00  0.17763568394E-14 -0.10751679617E+03  0.16487719086E+03  0.12499850641E+03 0.  0.
    9000006    2    3    3    0    0 -0.11367884277E+02 -0.41021279544E+01 -0.70447367217E+02  0.93321820544E+02  0.60000619956E+02 0.  0.
    9000007    2    3    3    0    0  0.11367884277E+02  0.41021279544E+01 -0.37069428957E+02  0.71555370312E+02  0.59999768421E+02 0.  0.
          5    1    4    4  501    0 -0.22735268941E+02  0.17891458592E+02 -0.16157790647E+02  0.33468805520E+02  0.47000000000E+01 0.  1.
         -5    1    4    4    0  501  0.11367384665E+02 -0.21993586546E+02 -0.54289576571E+02  0.59853015024E+02  0.47000000000E+01 0.  1.
         12    1    5    5    0    0  0.12560602655E+02 -0.94438405890E+01  0.12546982132E+02  0.20109242272E+02  0.00000000000E+00 0.  1.
        -12    1    5    5    0    0 -0.11927183786E+01  0.13545968543E+02 -0.49616411090E+02  0.51446128040E+02  0.00000000000E+00 0.  1.
<mgrwt>
<rscale>  0 0.12499851E+03</rscale>
<asrwt>0</asrwt>
<pdfrwt beam="1">  1       21 0.44123381E-02 0.12499851E+03</pdfrwt>
<pdfrwt beam="2">  1       21 0.20953384E-01 0.12499851E+03</pdfrwt>
<totfact> 0.68931029E+06</totfact>
</mgrwt>
</event>
<event>
 9    1  0.4458519E-002  0.1250211E+03  0.7818608E-02  0.1235036E+00
         21   -1    0    0  503  502  0.00000000000E+00  0.00000000000E+00  0.21037319145E+03  0.21037319145E+03  0.00000000000E+00 0.  1.
         21   -1    0    0  502  503 -0.00000000000E+00 -0.00000000000E+00 -0.18574476546E+02  0.18574476546E+02  0.00000000000E+00 0.  1.
         25    2    1    2    0    0 -0.88817841970E-15  0.00000000000E+00  0.19179871490E+03  0.22894766799E+03  0.12502114878E+03 0.  0.
    9000006    2    3    3    0    0  0.61808151048E+01  0.15435044761E+02  0.85675700708E+02  0.10590926811E+03  0.60000035807E+02 0.  0.
    9000007    2    3    3    0    0 -0.61808151048E+01 -0.15435044761E+02  0.10612301419E+03  0.12303839989E+03  0.59999255188E+02 0.  0.
          5    1    4    4  501    0 -0.13904931771E+01 -0.22287777542E+02  0.39532600618E+02  0.45646412900E+02  0.47000000000E+01 0.  1.
         -5    1    4    4    0  501  0.75713082819E+01  0.37722822303E+02  0.46143100090E+02  0.60262855205E+02  0.47000000000E+01 0.  1.
         12    1    5    5    0    0  0.85317646708E+00  0.38673799630E+01 -0.70120547968E+01  0.80531639953E+01  0.00000000000E+00 0. -1.
        -12    1    5    5    0    0 -0.70339915719E+01 -0.19302424724E+02  0.11313506899E+03  0.11498523589E+03  0.00000000000E+00 0. -1.
<mgrwt>
<rscale>  0 0.12502115E+03</rscale>
<asrwt>0</asrwt>
<pdfrwt beam="1">  1       21 0.32365105E-01 0.12502115E+03</pdfrwt>
<pdfrwt beam="2">  1       21 0.28576119E-02 0.12502115E+03</pdfrwt>
<totfact> 0.61885813E+06</totfact>
</mgrwt>
</event>
<event>
 9    1  0.4458519E-002  0.1249995E+03  0.7818608E-02  0.1235070E+00
         21   -1    0    0  503  502  0.00000000000E+00  0.00000000000E+00  0.34655436927E+02  0.34655436927E+02  0.00000000000E+00 0. -1.
         21   -1    0    0  502  503 -0.00000000000E+00 -0.00000000000E+00 -0.11271595547E+03  0.11271595547E+03  0.00000000000E+00 0. -1.
         25    2    1    2    0    0  0.00000000000E+00 -0.35527136788E-14 -0.78060518544E+02  0.14737139240E+03  0.12499953097E+03 0.  0.
    9000006    2    3    3    0    0  0.40039847163E+01  0.13090051819E+02 -0.51876610793E+02  0.80490385873E+02  0.60001150993E+02 0.  0.
    9000007    2    3    3    0    0 -0.40039847163E+01 -0.13090051819E+02 -0.26183907752E+02  0.66881006525E+02  0.60000755482E+02 0.  0.
          5    1    4    4  501    0 -0.13735906412E+02  0.23865208864E+02 -0.52202451917E+02  0.59206497154E+02  0.47000000000E+01 0. -1.
         -5    1    4    4    0  501  0.17739891128E+02 -0.10775157045E+02  0.32584112447E+00  0.21283888719E+02  0.47000000000E+01 0. -1.
         12    1    5    5    0    0  0.15508403107E+02 -0.30934168333E+02 -0.10609987654E+02  0.36193993637E+02  0.00000000000E+00 0. -1.
        -12    1    5    5    0    0 -0.19512387824E+02  0.17844116514E+02 -0.15573920098E+02  0.30687012888E+02  0.00000000000E+00 0. -1.
<mgrwt>
<rscale>  0 0.12499953E+03</rscale>
<asrwt>0</asrwt>
<pdfrwt beam="1">  1       21 0.53316056E-02 0.12499953E+03</pdfrwt>
<pdfrwt beam="2">  1       21 0.17340917E-01 0.12499953E+03</pdfrwt>
<totfact> 0.71091833E+06</totfact>
</mgrwt>
</event>
<event>
 9    1  0.4458519E-002  0.1250026E+03  0.7818608E-02  0.1235065E+00
         21   -1    0    0  503  502  0.00000000000E+00  0.00000000000E+00  0.20438612717E+03  0.20438612717E+03  0.00000000000E+00 0. -1.
         21   -1    0    0  502  503 -0.00000000000E+00 -0.00000000000E+00 -0.19112900727E+02  0.19112900727E+02  0.00000000000E+00 0. -1.
         25    2    1    2    0    0  0.00000000000E+00  0.35527136788E-14  0.18527322644E+03  0.22349902790E+03  0.12500258811E+03 0.  0.
    9000006    2    3    3    0    0 -0.26167318147E+01  0.17151411434E+02  0.88549140216E+02  0.10836023766E+03  0.59999772283E+02 0.  0.
    9000007    2    3    3    0    0  0.26167318147E+01 -0.17151411434E+02  0.96724086228E+02  0.11513879023E+03  0.60003116256E+02 0.  0.
          5    1    4    4  501    0 -0.13389794844E+02 -0.37658302732E+01 -0.18803764138E+01  0.14801820803E+02  0.47000000000E+01 0.  1.
         -5    1    4    4    0  501  0.10773063029E+02  0.20917241707E+02  0.90429516630E+02  0.93558416862E+02  0.47000000000E+01 0.  1.
         12    1    5    5    0    0  0.90046217832E+01  0.86518885175E+01  0.85294048711E+02  0.86203324379E+02  0.00000000000E+00 0.  1.
        -12    1    5    5    0    0 -0.63878899685E+01 -0.25803299952E+02  0.11430037517E+02  0.28935465856E+02  0.00000000000E+00 0.  1.
<mgrwt>
<rscale>  0 0.12500259E+03</rscale>
<asrwt>0</asrwt>
<pdfrwt beam="1">  1       21 0.31444018E-01 0.12500259E+03</pdfrwt>
<pdfrwt beam="2">  1       21 0.29404464E-02 0.12500259E+03</pdfrwt>
<totfact> 0.62462584E+06</totfact>
</mgrwt>
</event>
<event>
 9    1  0.4458519E-002  0.1249978E+03  0.7818608E-02  0.1235073E+00
         21   -1    0    0  503  502  0.00000000000E+00  0.00000000000E+00  0.38476155525E+02  0.38476155525E+02  0.00000000000E+00 0. -1.
         21   -1    0    0  502  503 -0.00000000000E+00 -0.00000000000E+00 -0.10152027916E+03  0.10152027916E+03  0.00000000000E+00 0. -1.
         25    2    1    2    0    0  0.00000000000E+00 -0.17763568394E-14 -0.63044123639E+02  0.13999643469E+03  0.12499776078E+03 0.  0.
    9000006    2    3    3    0    0 -0.16879591619E+02 -0.44978997320E+01 -0.30408838385E+02  0.69496542555E+02  0.59999335496E+02 0.  0.
    9000007    2    3    3    0    0  0.16879591619E+02  0.44978997320E+01 -0.32635285254E+02  0.70499892134E+02  0.60000176933E+02 0.  0.
          5    1    4    4  501    0 -0.34725821570E+02  0.11000106687E+02 -0.10396524543E+02  0.38171491370E+02  0.47000000000E+01 0. -1.
         -5    1    4    4    0  501  0.17846229951E+02 -0.15498006418E+02 -0.20012313842E+02  0.31325051185E+02  0.47000000000E+01 0. -1.
         12    1    5    5    0    0  0.23573040336E+02 -0.12254347589E+02  0.65482210640E+01  0.27363049257E+02  0.00000000000E+00 0. -1.
        -12    1    5    5    0    0 -0.66934487167E+01  0.16752247321E+02 -0.39183506318E+02  0.43136842877E+02  0.00000000000E+00 0. -1.
<mgrwt>
<rscale>  0 0.12499776E+03</rscale>
<asrwt>0</asrwt>
<pdfrwt beam="1">  1       21 0.59194085E-02 0.12499776E+03</pdfrwt>
<pdfrwt beam="2">  1       21 0.15618504E-01 0.12499776E+03</pdfrwt>
<totfact> 0.72043884E+06</totfact>
</mgrwt>
</event>
<event>
 9    1  0.4458519E-002  0.1249986E+03  0.7818608E-02  0.1235072E+00
         21   -1    0    0  503  502  0.00000000000E+00  0.00000000000E+00  0.16654793756E+02  0.16654793756E+02  0.00000000000E+00 0.  1.
         21   -1    0    0  502  503 -0.00000000000E+00 -0.00000000000E+00 -0.23453668226E+03  0.23453668226E+03  0.00000000000E+00 0.  1.
         25    2    1    2    0    0 -0.17763568394E-14  0.00000000000E+00 -0.21788188850E+03  0.25119147602E+03  0.12499856113E+03 0.  0.
    9000006    2    3    3    0    0  0.39316158755E+01 -0.17036209869E+02 -0.10765403607E+03  0.12447925522E+03  0.60000028725E+02 0.  0.
    9000007    2    3    3    0    0 -0.39316158755E+01  0.17036209869E+02 -0.11022785243E+03  0.12671222080E+03  0.60000978307E+02 0.  0.
          5    1    4    4  501    0 -0.17995098951E+02 -0.18890406763E+02 -0.95072700681E+02  0.98699440063E+02  0.47000000000E+01 0. -1.
         -5    1    4    4    0  501  0.21926714826E+02  0.18541968941E+01 -0.12581335389E+02  0.25779815154E+02  0.47000000000E+01 0. -1.
         12    1    5    5    0    0 -0.12447851414E+02  0.13807642551E+01 -0.10803203828E+03  0.10875558289E+03  0.00000000000E+00 0.  1.
        -12    1    5    5    0    0  0.85162355387E+01  0.15655445614E+02 -0.21958141503E+01  0.17956637907E+02  0.00000000000E+00 0.  1.
<mgrwt>
<rscale>  0 0.12499856E+03</rscale>
<asrwt>0</asrwt>
<pdfrwt beam="1">  1       21 0.25622760E-02 0.12499856E+03</pdfrwt>
<pdfrwt beam="2">  1       21 0.36082566E-01 0.12499856E+03</pdfrwt>
<totfact> 0.59768362E+06</totfact>
</mgrwt>
</event>
<event>
 9    1  0.4458519E-002  0.1249987E+03  0.7818608E-02  0.1235071E+00
         21   -1    0    0  503  502  0.00000000000E+00  0.00000000000E+00  0.12654938146E+02  0.12654938146E+02  0.00000000000E+00 0.  1.
         21   -1    0    0  502  503 -0.00000000000E+00 -0.00000000000E+00 -0.30866750077E+03  0.30866750077E+03  0.00000000000E+00 0.  1.
         25    2    1    2    0    0  0.53290705182E-14 -0.17763568394E-14 -0.29601256262E+03  0.32132243891E+03  0.12499869007E+03 0.  0.
    9000006    2    3    3    0    0  0.12677574642E+02 -0.12031864594E+02 -0.15018611507E+03  0.16266948815E+03  0.60000054579E+02 0.  0.
    9000007    2    3    3    0    0 -0.12677574642E+02  0.12031864594E+02 -0.14582644755E+03  0.15865295077E+03  0.59999327638E+02 0.  0.
          5    1    4    4  501    0  0.36123660035E+02 -0.97095761424E+01 -0.10373457119E+03  0.11037275907E+03  0.47000000000E+01 0. -1.
         -5    1    4    4    0  501 -0.23446085394E+02 -0.23222884520E+01 -0.46451543879E+02  0.52296729082E+02  0.47000000000E+01 0. -1.
         12    1    5    5    0    0 -0.18768102096E+01  0.35705551823E+02 -0.72301726148E+02  0.80659459777E+02  0.00000000000E+00 0.  1.
        -12    1    5    5    0    0 -0.10800764432E+02 -0.23673687228E+02 -0.73524721404E+02  0.77993490990E+02  0.00000000000E+00 0.  1.
<mgrwt>
<rscale>  0 0.12499869E+03</rscale>
<asrwt>0</asrwt>
<pdfrwt beam="1">  1       21 0.19469138E-02 0.12499869E+03</pdfrwt>
<pdfrwt beam="2">  1       21 0.47487301E-01 0.12499869E+03</pdfrwt>
<totfact> 0.53730481E+06</totfact>
</mgrwt>
</event>
<event>
 9    1  0.4458519E-002  0.1249934E+03  0.7818608E-02  0.1235080E+00
         21   -1    0    0  503  502  0.00000000000E+00  0.00000000000E+00  0.12165947695E+02  0.12165947695E+02  0.00000000000E+00 0.  1.
         21   -1    0    0  502  503 -0.00000000000E+00 -0.00000000000E+00 -0.32104679292E+03  0.32104679292E+03  0.00000000000E+00 0.  1.
         25    2    1    2    0    0  0.00000000000E+00 -0.31086244690E-14 -0.30888084522E+03  0.33321274061E+03  0.12499341567E+03 0.  0.
    9000006    2    3    3    0    0 -0.47250369987E+01  0.15340408336E+01 -0.10973081548E+03  0.12516140889E+03  0.59998726257E+02 0.  0.
    9000007    2    3    3    0    0  0.47250369987E+01 -0.15340408336E+01 -0.19915002974E+03  0.20805133172E+03  0.59999525258E+02 0.  0.
          5    1    4    4  501    0 -0.61070519046E+00  0.18740126960E+01  0.67804655552E+01  0.84823108620E+01  0.47000000000E+01 0.  1.
         -5    1    4    4    0  501 -0.41143318083E+01 -0.33997186241E+00 -0.11651128104E+03  0.11667909803E+03  0.47000000000E+01 0.  1.
         12    1    5    5    0    0 -0.41479456301E+01  0.27775445935E+02 -0.11852141298E+03  0.12180314522E+03  0.00000000000E+00 0.  1.
        -12    1    5    5    0    0  0.88729826288E+01 -0.29309486768E+02 -0.80628616757E+02  0.86248186506E+02  0.00000000000E+00 0.  1.
<mgrwt>
<rscale>  0 0.12499342E+03</rscale>
<asrwt>0</asrwt>
<pdfrwt beam="1">  1       21 0.18716843E-02 0.12499342E+03</pdfrwt>
<pdfrwt beam="2">  1       21 0.49391814E-01 0.12499342E+03</pdfrwt>
<totfact> 0.52811351E+06</totfact>
</mgrwt>
</event>
<event>
 9    1  0.4458519E-002  0.1250017E+03  0.7818608E-02  0.1235067E+00
         21   -1    0    0  503  502  0.00000000000E+00  0.00000000000E+00  0.65594704137E+01  0.65594704137E+01  0.00000000000E+00 0. -1.
         21   -1    0    0  502  503 -0.00000000000E+00 -0.00000000000E+00 -0.59552954547E+03  0.59552954547E+03  0.00000000000E+00 0. -1.
         25    2    1    2    0    0 -0.17763568394E-14 -0.35527136788E-14 -0.58897007505E+03  0.60208901588E+03  0.12500173493E+03 0.  0.
    9000006    2    3    3    0    0  0.55681295314E+01 -0.14271737121E+02 -0.33511437628E+03  0.34078805200E+03  0.60001372055E+02 0.  0.
    9000007    2    3    3    0    0 -0.55681295314E+01  0.14271737121E+02 -0.25385569877E+03  0.26130096388E+03  0.60006594464E+02 0.  0.
          5    1    4    4  501    0  0.22529747812E+01 -0.36870019498E+02 -0.16963981860E+03  0.17367853145E+03  0.47000000000E+01 0. -1.
         -5    1    4    4    0  501  0.33151547502E+01  0.22598282377E+02 -0.16547455768E+03  0.16710952054E+03  0.47000000000E+01 0. -1.
         12    1    5    5    0    0  0.20639595246E+02  0.24759145815E+02 -0.10671041905E+03  0.11147251557E+03  0.00000000000E+00 0.  1.
        -12    1    5    5    0    0 -0.26207724778E+02 -0.10487408694E+02 -0.14714527973E+03  0.14982844832E+03  0.00000000000E+00 0.  1.
<mgrwt>
<rscale>  0 0.12500173E+03</rscale>
<asrwt>0</asrwt>
<pdfrwt beam="1">  1       21 0.10091492E-02 0.12500173E+03</pdfrwt>
<pdfrwt beam="2">  1       21 0.91619935E-01 0.12500173E+03</pdfrwt>
<totfact> 0.36996732E+06</totfact>
</mgrwt>
</event>
<event>
 9    1  0.4458519E-002  0.1250102E+03  0.7818608E-02  0.1235053E+00
         21   -1    0    0  503  502  0.00000000000E+00  0.00000000000E+00  0.76016500086E+02  0.76016500086E+02  0.00000000000E+00 0. -1.
         21   -1    0    0  502  503 -0.00000000000E+00 -0.00000000000E+00 -0.51395216442E+02  0.51395216442E+02  0.00000000000E+00 0. -1.
         25    2    1    2    0    0  0.00000000000E+00  0.44408920985E-15  0.24621283643E+02  0.12741171653E+03  0.12501015119E+03 0.  0.
    9000006    2    3    3    0    0 -0.31557216324E+01  0.60965971583E+00 -0.52427741791E+01  0.60312847722E+02  0.59998522109E+02 0.  0.
    9000007    2    3    3    0    0  0.31557216324E+01 -0.60965971583E+00  0.29864057823E+02  0.67098868806E+02  0.60000549843E+02 0.  0.
          5    1    4    4  501    0  0.16297678400E+02  0.37951509840E+01  0.20933581090E+02  0.27208864538E+02  0.47000000000E+01 0.  1.
         -5    1    4    4    0  501 -0.19453400032E+02 -0.31854912682E+01 -0.26176355269E+02  0.33103983183E+02  0.47000000000E+01 0.  1.
         12    1    5    5    0    0 -0.27108599531E+02  0.76107019536E+01  0.95436070865E+01  0.29730109132E+02  0.00000000000E+00 0.  1.
        -12    1    5    5    0    0  0.30264321164E+02 -0.82203616694E+01  0.20320450736E+02  0.37368759674E+02  0.00000000000E+00 0.  1.
<mgrwt>
<rscale>  0 0.12501015E+03</rscale>
<asrwt>0</asrwt>
<pdfrwt beam="1">  1       21 0.11694846E-01 0.12501015E+03</pdfrwt>
<pdfrwt beam="2">  1       21 0.79069564E-02 0.12501015E+03</pdfrwt>
<totfact> 0.73694091E+06</totfact>
</mgrwt>
</event>
<event>
 9    1  0.4458519E-002  0.1250131E+03  0.7818608E-02  0.1235049E+00
         21   -1    0    0  503  502  0.00000000000E+00  0.00000000000E+00  0.17803061393E+02  0.17803061393E+02  0.00000000000E+00 0. -1.
         21   -1    0    0  502  503 -0.00000000000E+00 -0.00000000000E+00 -0.21946035611E+03  0.21946035611E+03  0.00000000000E+00 0. -1.
         25    2    1    2    0    0  0.17763568394E-14  0.53290705182E-14 -0.20165729471E+03  0.23726341750E+03  0.12501305841E+03 0.  0.
    9000006    2    3    3    0    0 -0.73828094190E+01  0.15874132583E+02 -0.99515836064E+02  0.11751555601E+03  0.60000085975E+02 0.  0.
    9000007    2    3    3    0    0  0.73828094190E+01 -0.15874132583E+02 -0.10214145865E+03  0.11974786149E+03  0.60001489945E+02 0.  0.
          5    1    4    4  501    0 -0.30840622797E+02  0.83954600603E+01 -0.31894215692E+02  0.45397783632E+02  0.47000000000E+01 0. -1.
         -5    1    4    4    0  501  0.23457813378E+02  0.74786725224E+01 -0.67621620373E+02  0.72117772379E+02  0.47000000000E+01 0. -1.
         12    1    5    5    0    0  0.12001123899E+02 -0.34972055306E+02 -0.88256694539E+02  0.95688639650E+02  0.00000000000E+00 0.  1.
        -12    1    5    5    0    0 -0.46183144804E+01  0.19097922724E+02 -0.13884764110E+02  0.24059221837E+02  0.00000000000E+00 0.  1.
<mgrwt>
<rscale>  0 0.12501306E+03</rscale>
<asrwt>0</asrwt>
<pdfrwt beam="1">  1       21 0.27389325E-02 0.12501306E+03</pdfrwt>
<pdfrwt beam="2">  1       21 0.33763132E-01 0.12501306E+03</pdfrwt>
<totfact> 0.61078359E+06</totfact>
</mgrwt>
</event>
<event>
 9    1  0.4458519E-002  0.1250062E+03  0.7818608E-02  0.1235060E+00
         21   -1    0    0  503  502  0.00000000000E+00  0.00000000000E+00  0.38637257508E+02  0.38637257508E+02  0.00000000000E+00 0.  1.
         21   -1    0    0  502  503 -0.00000000000E+00 -0.00000000000E+00 -0.10111057496E+03  0.10111057496E+03  0.00000000000E+00 0.  1.
         25    2    1    2    0    0  0.17763568394E-14  0.17763568394E-14 -0.62473317451E+02  0.13974783247E+03  0.12500616499E+03 0.  0.
    9000006    2    3    3    0    0 -0.30511752619E+01  0.15315155538E+02 -0.22381433136E+02  0.65915573146E+02  0.60000588116E+02 0.  0.
    9000007    2    3    3    0    0  0.30511752619E+01 -0.15315155538E+02 -0.40091884315E+02  0.73832259321E+02  0.59999830574E+02 0.  0.
          5    1    4    4  501    0  0.10386581200E+02  0.35434109221E+02 -0.15547400143E+02  0.40339420132E+02  0.47000000000E+01 0.  1.
         -5    1    4    4    0  501 -0.13437756462E+02 -0.20118953684E+02 -0.68340329923E+01  0.25576153014E+02  0.47000000000E+01 0.  1.
         12    1    5    5    0    0 -0.28368025396E+02 -0.87257034416E+01 -0.22343917118E+02  0.37150146670E+02  0.00000000000E+00 0. -1.
        -12    1    5    5    0    0  0.31419200658E+02 -0.65894520963E+01 -0.17747967197E+02  0.36682112651E+02  0.00000000000E+00 0. -1.
<mgrwt>
<rscale>  0 0.12500616E+03</rscale>
<asrwt>0</asrwt>
<pdfrwt beam="1">  1       21 0.59441936E-02 0.12500616E+03</pdfrwt>
<pdfrwt beam="2">  1       21 0.15555473E-01 0.12500616E+03</pdfrwt>
<totfact> 0.72060926E+06</totfact>
</mgrwt>
</event>
<event>
 9    1  0.4458519E-002  0.1249998E+03  0.7818608E-02  0.1235070E+00
         21   -1    0    0  503  502  0.00000000000E+00  0.00000000000E+00  0.92267713808E+03  0.92267713808E+03  0.00000000000E+00 0.  1.
         21   -1    0    0  502  503 -0.00000000000E+00 -0.00000000000E+00 -0.42335914433E+01  0.42335914433E+01  0.00000000000E+00 0.  1.
         25    2    1    2    0    0  0.00000000000E+00  0.88817841970E-15  0.91844354663E+03  0.92691072952E+03  0.12499980859E+03 0.  0.
    9000006    2    3    3    0    0  0.17396677216E+02 -0.14004864311E+01  0.46875672893E+03  0.47290322518E+03  0.59999864441E+02 0.  0.
    9000007    2    3    3    0    0 -0.17396677216E+02  0.14004864311E+01  0.44968681771E+03  0.45400750434E+03  0.59999785298E+02 0.  0.
          5    1    4    4  501    0  0.22893942036E+02  0.19897603929E-01  0.64911956740E+02  0.68991195856E+02  0.47000000000E+01 0.  1.
         -5    1    4    4    0  501 -0.54972648206E+01 -0.14203840351E+01  0.40384477219E+03  0.40391202932E+03  0.47000000000E+01 0.  1.
         12    1    5    5    0    0 -0.46644367014E+01 -0.21206983186E+02  0.35969910177E+03  0.36035390510E+03  0.00000000000E+00 0.  1.
        -12    1    5    5    0    0 -0.12732240514E+02  0.22607469617E+02  0.89987715936E+02  0.93653599239E+02  0.00000000000E+00 0.  1.
<mgrwt>
<rscale>  0 0.12499981E+03</rscale>
<asrwt>0</asrwt>
<pdfrwt beam="1">  1       21 0.14195017E+00 0.12499981E+03</pdfrwt>
<pdfrwt beam="2">  1       21 0.65132249E-03 0.12499981E+03</pdfrwt>
<totfact> 0.25540091E+06</totfact>
</mgrwt>
</event>
<event>
 9    1  0.4458519E-002  0.1249997E+03  0.7818608E-02  0.1235070E+00
         21   -1    0    0  503  502  0.00000000000E+00  0.00000000000E+00  0.13559754286E+02  0.13559754286E+02  0.00000000000E+00 0. -1.
         21   -1    0    0  502  503 -0.00000000000E+00 -0.00000000000E+00 -0.28807554009E+03  0.28807554009E+03  0.00000000000E+00 0. -1.
         25    2    1    2    0    0  0.00000000000E+00  0.17763568394E-14 -0.27451578580E+03  0.30163529437E+03  0.12499973663E+03 0.  0.
    9000006    2    3    3    0    0  0.16342614417E+02 -0.44475576323E+01 -0.14786384746E+03  0.16047001065E+03  0.60000375994E+02 0.  0.
    9000007    2    3    3    0    0 -0.16342614417E+02  0.44475576323E+01 -0.12665193835E+03  0.14116528372E+03  0.60000516888E+02 0.  0.
          5    1    4    4  501    0  0.20704932003E+02  0.89260459428E+01 -0.14302731996E+03  0.14486984765E+03  0.47000000000E+01 0.  1.
         -5    1    4    4    0  501 -0.43623175862E+01 -0.13373603575E+02 -0.48365274992E+01  0.15600162998E+02  0.47000000000E+01 0.  1.
         12    1    5    5    0    0 -0.69632020485E+01  0.32252893280E+02 -0.66184802095E+02  0.73953791898E+02  0.00000000000E+00 0. -1.
        -12    1    5    5    0    0 -0.93794123686E+01 -0.27805335648E+02 -0.60467136251E+02  0.67211491824E+02  0.00000000000E+00 0. -1.
<mgrwt>
<rscale>  0 0.12499974E+03</rscale>
<asrwt>0</asrwt>
<pdfrwt beam="1">  1       21 0.20861161E-02 0.12499974E+03</pdfrwt>
<pdfrwt beam="2">  1       21 0.44319314E-01 0.12499974E+03</pdfrwt>
<totfact> 0.55320913E+06</totfact>
</mgrwt>
</event>
<event>
 9    1  0.4458519E-002  0.1249857E+03  0.7818608E-02  0.1235092E+00
         21   -1    0    0  503  502  0.00000000000E+00  0.00000000000E+00  0.38845322291E+02  0.38845322291E+02  0.00000000000E+00 0. -1.
         21   -1    0    0  502  503 -0.00000000000E+00 -0.00000000000E+00 -0.10053609091E+03  0.10053609091E+03  0.00000000000E+00 0. -1.
         25    2    1    2    0    0  0.00000000000E+00  0.00000000000E+00 -0.61690768616E+02  0.13938141320E+03  0.12498570883E+03 0.  0.
    9000006    2    3    3    0    0  0.17043099869E+02  0.32933746846E+01 -0.33079087259E+02  0.70679777109E+02  0.60000760899E+02 0.  0.
    9000007    2    3    3    0    0 -0.17043099869E+02 -0.32933746846E+01 -0.28611681357E+02  0.68701636089E+02  0.59999774343E+02 0.  0.
          5    1    4    4  501    0  0.11738248546E+02 -0.22551454505E+02 -0.35337641734E+02  0.43785768265E+02  0.47000000000E+01 0.  1.
         -5    1    4    4    0  501  0.53048513234E+01  0.25844829190E+02  0.22585544750E+01  0.26894008845E+02  0.47000000000E+01 0.  1.
         12    1    5    5    0    0 -0.24080344869E+02  0.35897955197E+01  0.11837634959E+02  0.27071742506E+02  0.00000000000E+00 0.  1.
        -12    1    5    5    0    0  0.70372449999E+01 -0.68831702044E+01 -0.40449316316E+02  0.41629893583E+02  0.00000000000E+00 0.  1.
<mgrwt>
<rscale>  0 0.12498571E+03</rscale>
<asrwt>0</asrwt>
<pdfrwt beam="1">  1       21 0.59762035E-02 0.12498571E+03</pdfrwt>
<pdfrwt beam="2">  1       21 0.15467091E-01 0.12498571E+03</pdfrwt>
<totfact> 0.72146433E+06</totfact>
</mgrwt>
</event>
<event>
 9    1  0.4458519E-002  0.1250010E+03  0.7818608E-02  0.1235068E+00
         21   -1    0    0  503  502  0.00000000000E+00  0.00000000000E+00  0.63793022949E+02  0.63793022949E+02  0.00000000000E+00 0. -1.
         21   -1    0    0  502  503 -0.00000000000E+00 -0.00000000000E+00 -0.61234192499E+02  0.61234192499E+02  0.00000000000E+00 0. -1.
         25    2    1    2    0    0  0.35527136788E-14  0.88817841970E-15  0.25588304504E+01  0.12502721545E+03  0.12500102795E+03 0.  0.
    9000006    2    3    3    0    0 -0.99482411802E+01  0.41136776340E+01 -0.12528692718E+02  0.62230857598E+02  0.59998513731E+02 0.  0.
    9000007    2    3    3    0    0  0.99482411802E+01 -0.41136776340E+01  0.15087523168E+02  0.62796357850E+02  0.59998827969E+02 0.  0.
          5    1    4    4  501    0 -0.23352611868E+02  0.25295294891E+02 -0.25321306047E+01  0.34838170303E+02  0.47000000000E+01 0.  1.
         -5    1    4    4    0  501  0.13404370687E+02 -0.21181617257E+02 -0.99965621130E+01  0.27392687295E+02  0.47000000000E+01 0.  1.
         12    1    5    5    0    0  0.34019965573E+02 -0.60738507314E+01  0.46063330296E+00  0.34560988171E+02  0.00000000000E+00 0.  1.
        -12    1    5    5    0    0 -0.24071724393E+02  0.19601730974E+01  0.14626889865E+02  0.28235369680E+02  0.00000000000E+00 0.  1.
<mgrwt>
<rscale>  0 0.12500103E+03</rscale>
<asrwt>0</asrwt>
<pdfrwt beam="1">  1       21 0.98143112E-02 0.12500103E+03</pdfrwt>
<pdfrwt beam="2">  1       21 0.94206451E-02 0.12500103E+03</pdfrwt>
<totfact> 0.74037960E+06</totfact>
</mgrwt>
</event>
<event>
 9    1  0.4458519E-002  0.1250011E+03  0.7818608E-02  0.1235068E+00
         21   -1    0    0  503  502  0.00000000000E+00  0.00000000000E+00  0.17937946493E+02  0.17937946493E+02  0.00000000000E+00 0.  1.
         21   -1    0    0  502  503 -0.00000000000E+00 -0.00000000000E+00 -0.21776841511E+03  0.21776841511E+03  0.00000000000E+00 0.  1.
         25    2    1    2    0    0  0.00000000000E+00  0.00000000000E+00 -0.19983046862E+03  0.23570636160E+03  0.12500109084E+03 0.  0.
    9000006    2    3    3    0    0 -0.87675701144E+01 -0.10250954160E+02 -0.78869529710E+02  0.10001148773E+03  0.59999521779E+02 0.  0.
    9000007    2    3    3    0    0  0.87675701144E+01  0.10250954160E+02 -0.12096093891E+03  0.13569487388E+03  0.59996647473E+02 0.  0.
          5    1    4    4  501    0 -0.29193041906E+02 -0.22326398499E+02 -0.43182808731E+02  0.56899444071E+02  0.47000000000E+01 0.  1.
         -5    1    4    4    0  501  0.20425471792E+02  0.12075444340E+02 -0.35686720978E+02  0.43112043655E+02  0.47000000000E+01 0.  1.
         12    1    5    5    0    0 -0.19789631879E+02  0.77527699035E+01 -0.15231702659E+02  0.26148417485E+02  0.00000000000E+00 0. -1.
        -12    1    5    5    0    0  0.28557201993E+02  0.24981842563E+01 -0.10572923625E+03  0.10954645639E+03  0.00000000000E+00 0. -1.
<mgrwt>
<rscale>  0 0.12500109E+03</rscale>
<asrwt>0</asrwt>
<pdfrwt beam="1">  1       21 0.27596841E-02 0.12500109E+03</pdfrwt>
<pdfrwt beam="2">  1       21 0.33502833E-01 0.12500109E+03</pdfrwt>
<totfact> 0.61248954E+06</totfact>
</mgrwt>
</event>
<event>
 9    1  0.4458519E-002  0.1250012E+03  0.7818608E-02  0.1235067E+00
         21   -1    0    0  503  502  0.00000000000E+00  0.00000000000E+00  0.32473631493E+02  0.32473631493E+02  0.00000000000E+00 0.  1.
         21   -1    0    0  502  503 -0.00000000000E+00 -0.00000000000E+00 -0.12029213568E+03  0.12029213568E+03  0.00000000000E+00 0.  1.
         25    2    1    2    0    0 -0.13322676296E-14  0.35527136788E-14 -0.87818504184E+02  0.15276576717E+03  0.12500115976E+03 0.  0.
    9000006    2    3    3    0    0 -0.27030614680E+01  0.13661131641E+02 -0.56866595740E+02  0.83831262881E+02  0.59999482215E+02 0.  0.
    9000007    2    3    3    0    0  0.27030614680E+01 -0.13661131641E+02 -0.30951908443E+02  0.68934504290E+02  0.60000101553E+02 0.  0.
          5    1    4    4  501    0  0.11484109447E+01  0.37058989687E+02 -0.36119080210E+02  0.51974662284E+02  0.47000000000E+01 0. -1.
         -5    1    4    4    0  501 -0.38514724127E+01 -0.23397858046E+02 -0.20747515531E+02  0.31856600597E+02  0.47000000000E+01 0. -1.
         12    1    5    5    0    0  0.14029138996E+02  0.11823160391E+02 -0.36175295966E+02  0.40561754163E+02  0.00000000000E+00 0. -1.
        -12    1    5    5    0    0 -0.11326077528E+02 -0.25484292032E+02  0.52233875222E+01  0.28372750127E+02  0.00000000000E+00 0. -1.
<mgrwt>
<rscale>  0 0.12500116E+03</rscale>
<asrwt>0</asrwt>
<pdfrwt beam="1">  1       21 0.49959433E-02 0.12500116E+03</pdfrwt>
<pdfrwt beam="2">  1       21 0.18506482E-01 0.12500116E+03</pdfrwt>
<totfact> 0.70411397E+06</totfact>
</mgrwt>
</event>
<event>
 8    1  0.4458519E-002  0.1249299E+03  0.7818608E-02  0.1235179E+00
         21   -1    0    0  503  502  0.00000000000E+00  0.00000000000E+00  0.11015912106E+03  0.11015912106E+03  0.00000000000E+00 0.  1.
         21   -1    0    0  502  503 -0.00000000000E+00 -0.00000000000E+00 -0.35420294262E+02  0.35420294262E+02  0.00000000000E+00 0.  1.
    9000006    2    1    2    0    0 -0.15043615189E+02 -0.37491280581E+01  0.46502623382E+02  0.77478085829E+02  0.59999945694E+02 0.  0.
    9000007    2    1    2    0    0  0.15043615189E+02  0.37491280581E+01  0.28236203413E+02  0.68101329490E+02  0.60001179788E+02 0.  0.
          5    1    3    3  501    0  0.14844273695E+02 -0.63227459081E+01 -0.51368261278E+01  0.17572892762E+02  0.47000000000E+01 0.  1.
         -5    1    3    3    0  501 -0.29887888884E+02  0.25736178501E+01  0.51639449509E+02  0.59905193067E+02  0.47000000000E+01 0.  1.
         12    1    4    4    0    0  0.23755047182E+02 -0.15831998359E+02  0.35425262987E+02  0.45496194306E+02  0.00000000000E+00 0.  1.
        -12    1    4    4    0    0 -0.87114319929E+01  0.19581126417E+02 -0.71890595733E+01  0.22605135184E+02  0.00000000000E+00 0.  1.
<mgrwt>
<rscale>  0 0.12492988E+03</rscale>
<asrwt>0</asrwt>
<pdfrwt beam="1">  1       21 0.16947557E-01 0.12492988E+03</pdfrwt>
<pdfrwt beam="2">  1       21 0.54492761E-02 0.12492988E+03</pdfrwt>
<totfact> 0.71446534E+06</totfact>
</mgrwt>
</event>
<event>
 9    1  0.4458519E-002  0.1250007E+03  0.7818608E-02  0.1235068E+00
         21   -1    0    0  503  502  0.00000000000E+00  0.00000000000E+00  0.12681096199E+03  0.12681096199E+03  0.00000000000E+00 0.  1.
         21   -1    0    0  502  503 -0.00000000000E+00 -0.00000000000E+00 -0.30804059901E+02  0.30804059901E+02  0.00000000000E+00 0.  1.
         25    2    1    2    0    0 -0.35527136788E-14  0.88817841970E-15  0.96006902091E+02  0.15761502189E+03  0.12500067951E+03 0.  0.
    9000006    2    3    3    0    0 -0.12841484589E+02  0.22176181347E+01  0.62745480886E+02  0.87788995670E+02  0.60000756933E+02 0.  0.
    9000007    2    3    3    0    0  0.12841484589E+02 -0.22176181347E+01  0.33261421205E+02  0.69826026224E+02  0.59996085214E+02 0.  0.
          5    1    4    4  501    0  0.18996381426E+02 -0.14067451936E+02  0.16804922937E+02  0.29381135890E+02  0.47000000000E+01 0.  1.
         -5    1    4    4    0  501 -0.31837866014E+02  0.16285070071E+02  0.45940557949E+02  0.58407859781E+02  0.47000000000E+01 0.  1.
         12    1    5    5    0    0 -0.18027140123E+02 -0.19151247596E+01 -0.67023167704E+01  0.19327869358E+02  0.00000000000E+00 0. -1.
        -12    1    5    5    0    0  0.30868624711E+02 -0.30249337507E+00  0.39963737976E+02  0.50498156865E+02  0.00000000000E+00 0. -1.
<mgrwt>
<rscale>  0 0.12500068E+03</rscale>
<asrwt>0</asrwt>
<pdfrwt beam="1">  1       21 0.19509379E-01 0.12500068E+03</pdfrwt>
<pdfrwt beam="2">  1       21 0.47390862E-02 0.12500068E+03</pdfrwt>
<totfact> 0.69810889E+06</totfact>
</mgrwt>
</event>
<event>
 9    1  0.4458519E-002  0.1250007E+03  0.7818608E-02  0.1235068E+00
         21   -1    0    0  503  502  0.00000000000E+00  0.00000000000E+00  0.55153800400E+01  0.55153800400E+01  0.00000000000E+00 0.  1.
         21   -1    0    0  502  503 -0.00000000000E+00 -0.00000000000E+00 -0.70825414851E+03  0.70825414851E+03  0.00000000000E+00 0.  1.
         25    2    1    2    0    0 -0.17763568394E-14  0.00000000000E+00 -0.70273876847E+03  0.71376952855E+03  0.12500065270E+03 0.  0.
    9000006    2    3    3    0    0 -0.13983120226E+02 -0.99924830218E+01 -0.33249136311E+03  0.33829841839E+03  0.59999466466E+02 0.  0.
    9000007    2    3    3    0    0  0.13983120226E+02  0.99924830218E+01 -0.37024740536E+03  0.37547111016E+03  0.60000300154E+02 0.  0.
          5    1    4    4  501    0  0.15890692687E+02 -0.11183506473E+02 -0.24314214737E+03  0.24396265854E+03  0.47000000000E+01 0. -1.
         -5    1    4    4    0  501 -0.29873812913E+02  0.11910234512E+01 -0.89349215733E+02  0.94335759853E+02  0.47000000000E+01 0. -1.
         12    1    5    5    0    0  0.24930301841E+01 -0.90252859148E+01 -0.73746899713E+01  0.11918768289E+02  0.00000000000E+00 0. -1.
        -12    1    5    5    0    0  0.11490090042E+02  0.19017768937E+02 -0.36287271539E+03  0.36355234187E+03  0.00000000000E+00 0. -1.
<mgrwt>
<rscale>  0 0.12500065E+03</rscale>
<asrwt>0</asrwt>
<pdfrwt beam="1">  1       21 0.84852064E-03 0.12500065E+03</pdfrwt>
<pdfrwt beam="2">  1       21 0.10896210E+00 0.12500065E+03</pdfrwt>
<totfact> 0.32385491E+06</totfact>
</mgrwt>
</event>
<event>
 9    1  0.4458519E-002  0.1250031E+03  0.7818608E-02  0.1235064E+00
         21   -1    0    0  503  502  0.00000000000E+00  0.00000000000E+00  0.18071075103E+02  0.18071075103E+02  0.00000000000E+00 0.  1.
         21   -1    0    0  502  503 -0.00000000000E+00 -0.00000000000E+00 -0.21617110941E+03  0.21617110941E+03  0.00000000000E+00 0.  1.
         25    2    1    2    0    0  0.35527136788E-14  0.17763568394E-14 -0.19810003430E+03  0.23424218451E+03  0.12500310961E+03 0.  0.
    9000006    2    3    3    0    0 -0.14570606704E+02 -0.83790707032E+01 -0.10821998098E+03  0.12487611584E+03  0.59999738480E+02 0.  0.
    9000007    2    3    3    0    0  0.14570606704E+02  0.83790707032E+01 -0.89880053324E+02  0.10936606867E+03  0.60000013216E+02 0.  0.
          5    1    4    4  501    0  0.18466385122E+01 -0.87878067781E+00  0.67093533030E+01  0.84432073893E+01  0.47000000000E+01 0. -1.
         -5    1    4    4    0  501 -0.16417245216E+02 -0.75002900254E+01 -0.11492933428E+03  0.11643290845E+03  0.47000000000E+01 0. -1.
         12    1    5    5    0    0  0.14912717414E+02 -0.56124292521E+01 -0.93549962233E+02  0.94897228287E+02  0.00000000000E+00 0. -1.
        -12    1    5    5    0    0 -0.34211071071E+00  0.13991499955E+02  0.36699089081E+01  0.14468840387E+02  0.00000000000E+00 0. -1.
<mgrwt>
<rscale>  0 0.12500311E+03</rscale>
<asrwt>0</asrwt>
<pdfrwt beam="1">  1       21 0.27801653E-02 0.12500311E+03</pdfrwt>
<pdfrwt beam="2">  1       21 0.33257095E-01 0.12500311E+03</pdfrwt>
<totfact> 0.61389506E+06</totfact>
</mgrwt>
</event>
<event>
 9    1  0.4458519E-002  0.1250022E+03  0.7818608E-02  0.1235066E+00
         21   -1    0    0  503  502  0.00000000000E+00  0.00000000000E+00  0.15189473823E+03  0.15189473823E+03  0.00000000000E+00 0.  1.
         21   -1    0    0  502  503 -0.00000000000E+00 -0.00000000000E+00 -0.25717721502E+02  0.25717721502E+02  0.00000000000E+00 0.  1.
         25    2    1    2    0    0  0.00000000000E+00  0.00000000000E+00  0.12617701673E+03  0.17761245973E+03  0.12500218519E+03 0.  0.
    9000006    2    3    3    0    0 -0.10785864059E+01  0.96188916106E+01  0.42370994171E+02  0.74088947317E+02  0.60001537838E+02 0.  0.
    9000007    2    3    3    0    0  0.10785864059E+01 -0.96188916106E+01  0.83806022559E+02  0.10352351242E+03  0.59999848179E+02 0.  0.
          5    1    4    4  501    0 -0.66313954751E+01 -0.22989153511E+02  0.29531085246E+02  0.38296887353E+02  0.47000000000E+01 0. -1.
         -5    1    4    4    0  501  0.55528090692E+01  0.32608045122E+02  0.12839908925E+02  0.35792059964E+02  0.47000000000E+01 0. -1.
         12    1    5    5    0    0 -0.12674054893E+02 -0.30081392268E+02  0.64206076509E+02  0.72027370415E+02  0.00000000000E+00 0.  1.
        -12    1    5    5    0    0  0.13752641299E+02  0.20462500657E+02  0.19599946050E+02  0.31496142002E+02  0.00000000000E+00 0.  1.
<mgrwt>
<rscale>  0 0.12500219E+03</rscale>
<asrwt>0</asrwt>
<pdfrwt beam="1">  1       21 0.23368421E-01 0.12500219E+03</pdfrwt>
<pdfrwt beam="2">  1       21 0.39565726E-02 0.12500219E+03</pdfrwt>
<totfact> 0.67422751E+06</totfact>
</mgrwt>
</event>
<event>
 9    1  0.4458519E-002  0.1250000E+03  0.7818608E-02  0.1235069E+00
         21   -1    0    0  503  502  0.00000000000E+00  0.00000000000E+00  0.10351412352E+02  0.10351412352E+02  0.00000000000E+00 0. -1.
         21   -1    0    0  502  503 -0.00000000000E+00 -0.00000000000E+00 -0.37736419608E+03  0.37736419608E+03  0.00000000000E+00 0. -1.
         25    2    1    2    0    0  0.00000000000E+00  0.00000000000E+00 -0.36701278373E+03  0.38771560843E+03  0.12500003841E+03 0.  0.
    9000006    2    3    3    0    0 -0.87663412950E+01  0.13261652448E+02 -0.16081568017E+03  0.17237871167E+03  0.60000142377E+02 0.  0.
    9000007    2    3    3    0    0  0.87663412950E+01 -0.13261652448E+02 -0.20619710356E+03  0.21533689676E+03  0.60000111858E+02 0.  0.
          5    1    4    4  501    0 -0.32445344733E-01  0.35561041252E+02 -0.74609294148E+02  0.82784210336E+02  0.47000000000E+01 0.  1.
         -5    1    4    4    0  501 -0.87338959503E+01 -0.22299388804E+02 -0.86206386018E+02  0.89594501337E+02  0.47000000000E+01 0.  1.
         12    1    5    5    0    0  0.48732751145E+01 -0.11014143196E+02 -0.20944504317E+03  0.20979105383E+03  0.00000000000E+00 0. -1.
        -12    1    5    5    0    0  0.38930661805E+01 -0.22475092526E+01  0.32479396030E+01  0.55458429288E+01  0.00000000000E+00 0. -1.
<mgrwt>
<rscale>  0 0.12500004E+03</rscale>
<asrwt>0</asrwt>
<pdfrwt beam="1">  1       21 0.15925253E-02 0.12500004E+03</pdfrwt>
<pdfrwt beam="2">  1       21 0.58056017E-01 0.12500004E+03</pdfrwt>
<totfact> 0.48866937E+06</totfact>
</mgrwt>
</event>
<event>
 9    1  0.4458519E-002  0.1249982E+03  0.7818608E-02  0.1235072E+00
         21   -1    0    0  503  502  0.00000000000E+00  0.00000000000E+00  0.15228877211E+02  0.15228877211E+02  0.00000000000E+00 0.  1.
         21   -1    0    0  502  503 -0.00000000000E+00 -0.00000000000E+00 -0.25649558332E+03  0.25649558332E+03  0.00000000000E+00 0.  1.
         25    2    1    2    0    0 -0.35527136788E-14 -0.17763568394E-14 -0.24126670611E+03  0.27172446053E+03  0.12499823589E+03 0.  0.
    9000006    2    3    3    0    0 -0.13722046200E+02 -0.10375467101E+02 -0.12774221566E+03  0.14217580237E+03  0.59999502074E+02 0.  0.
    9000007    2    3    3    0    0  0.13722046200E+02  0.10375467101E+02 -0.11352449045E+03  0.12954865816E+03  0.59992499777E+02 0.  0.
          5    1    4    4  501    0  0.18610503087E+02  0.78612108264E+01 -0.72838112127E+02  0.75733942450E+02  0.47000000000E+01 0.  1.
         -5    1    4    4    0  501 -0.32332549287E+02 -0.18236677927E+02 -0.54904103534E+02  0.66441859923E+02  0.47000000000E+01 0.  1.
         12    1    5    5    0    0 -0.20427297361E+02  0.16218187471E+01 -0.16470522742E+02  0.26290357413E+02  0.00000000000E+00 0.  1.
        -12    1    5    5    0    0  0.34149343561E+02  0.87536483535E+01 -0.97053967706E+02  0.10325830074E+03  0.00000000000E+00 0.  1.
<mgrwt>
<rscale>  0 0.12499824E+03</rscale>
<asrwt>0</asrwt>
<pdfrwt beam="1">  1       21 0.23429043E-02 0.12499824E+03</pdfrwt>
<pdfrwt beam="2">  1       21 0.39460856E-01 0.12499824E+03</pdfrwt>
<totfact> 0.57893570E+06</totfact>
</mgrwt>
</event>
<event>
 9    1  0.4458519E-002  0.1250121E+03  0.7818608E-02  0.1235050E+00
         21   -1    0    0  503  502  0.00000000000E+00  0.00000000000E+00  0.29645457482E+01  0.29645457482E+01  0.00000000000E+00 0. -1.
         21   -1    0    0  502  503 -0.00000000000E+00 -0.00000000000E+00 -0.13179113985E+04  0.13179113985E+04  0.00000000000E+00 0. -1.
         25    2    1    2    0    0  0.35527136788E-14  0.88817841970E-15 -0.13149468527E+04  0.13208759442E+04  0.12501213754E+03 0.  0.
    9000006    2    3    3    0    0 -0.17294923226E+02  0.60020791305E+00 -0.68618413496E+03  0.68901970751E+03  0.60000130384E+02 0.  0.
    9000007    2    3    3    0    0  0.17294923226E+02 -0.60020791305E+00 -0.62876271779E+03  0.63185623673E+03  0.60002283309E+02 0.  0.
          5    1    4    4  501    0  0.13402895816E+02  0.16299721549E+02 -0.13332560085E+03  0.13506711065E+03  0.47000000000E+01 0. -1.
         -5    1    4    4    0  501 -0.30697819043E+02 -0.15699513635E+02 -0.55285853411E+03  0.55395259685E+03  0.47000000000E+01 0. -1.
         12    1    5    5    0    0 -0.16617676567E+02  0.58837056848E+01 -0.41060125693E+03  0.41097950966E+03  0.00000000000E+00 0. -1.
        -12    1    5    5    0    0  0.33912599793E+02 -0.64839135978E+01 -0.21816146085E+03  0.22087672707E+03  0.00000000000E+00 0. -1.
<mgrwt>
<rscale>  0 0.12501214E+03</rscale>
<asrwt>0</asrwt>
<pdfrwt beam="1">  1       21 0.45608420E-03 0.12501214E+03</pdfrwt>
<pdfrwt beam="2">  1       21 0.20275549E+00 0.12501214E+03</pdfrwt>
<totfact> 0.16876558E+06</totfact>
</mgrwt>
</event>
<event>
 9    1  0.4458519E-002  0.1249983E+03  0.7818608E-02  0.1235072E+00
         21   -1    0    0  503  502  0.00000000000E+00  0.00000000000E+00  0.19685630650E+04  0.19685630650E+04  0.00000000000E+00 0. -1.
         21   -1    0    0  502  503 -0.00000000000E+00 -0.00000000000E+00 -0.19842627761E+01  0.19842627761E+01  0.00000000000E+00 0. -1.
         25    2    1    2    0    0 -0.35527136788E-14  0.26645352591E-14  0.19665788023E+04  0.19705473278E+04  0.12499834259E+03 0.  0.
    9000006    2    3    3    0    0 -0.16164544846E+02 -0.58286440254E+01  0.93086485366E+03  0.93295478798E+03  0.59999958720E+02 0.  0.
    9000007    2    3    3    0    0  0.16164544846E+02  0.58286440254E+01  0.10357139486E+04  0.10375925398E+04  0.59996914719E+02 0.  0.
          5    1    4    4  501    0  0.20122874309E+02 -0.10270935753E+02  0.23983487818E+03  0.24094248480E+03  0.47000000000E+01 0. -1.
         -5    1    4    4    0  501 -0.36287419155E+02  0.44422917273E+01  0.69102997548E+03  0.69201230318E+03  0.47000000000E+01 0. -1.
         12    1    5    5    0    0  0.31747717783E+02  0.17999383392E+02  0.85917368003E+03  0.85994843324E+03  0.00000000000E+00 0.  1.
        -12    1    5    5    0    0 -0.15583172937E+02 -0.12170739366E+02  0.17654026858E+03  0.17764410659E+03  0.00000000000E+00 0.  1.
<mgrwt>
<rscale>  0 0.12499834E+03</rscale>
<asrwt>0</asrwt>
<pdfrwt beam="1">  1       21 0.30285429E+00 0.12499834E+03</pdfrwt>
<pdfrwt beam="2">  1       21 0.30527277E-03 0.12499834E+03</pdfrwt>
<totfact> 0.82392734E+05</totfact>
</mgrwt>
</event>
<event>
 9    1  0.4458519E-002  0.1250036E+03  0.7818608E-02  0.1235064E+00
         21   -1    0    0  503  502  0.00000000000E+00  0.00000000000E+00  0.44617842380E+02  0.44617842380E+02  0.00000000000E+00 0.  1.
         21   -1    0    0  502  503 -0.00000000000E+00 -0.00000000000E+00 -0.87554097810E+02  0.87554097810E+02  0.00000000000E+00 0.  1.
         25    2    1    2    0    0  0.00000000000E+00  0.17763568394E-14 -0.42936255430E+02  0.13217194019E+03  0.12500359892E+03 0.  0.
    9000006    2    3    3    0    0 -0.15878962713E+02 -0.65294834515E+01 -0.25076939598E+02  0.67257861281E+02  0.59999928279E+02 0.  0.
    9000007    2    3    3    0    0  0.15878962713E+02  0.65294834515E+01 -0.17859315831E+02  0.64914078909E+02  0.60000890557E+02 0.  0.
          5    1    4    4  501    0 -0.31350584862E+02  0.66035804417E+01 -0.31783779586E+02  0.45373616680E+02  0.47000000000E+01 0. -1.
         -5    1    4    4    0  501  0.15471622149E+02 -0.13133063893E+02  0.67068399875E+01  0.21884244601E+02  0.47000000000E+01 0. -1.
         12    1    5    5    0    0 -0.81674200341E+01  0.16591308275E+02 -0.30712985016E+02  0.35850602629E+02  0.00000000000E+00 0.  1.
        -12    1    5    5    0    0  0.24046382747E+02 -0.10061824824E+02  0.12853669184E+02  0.29063476280E+02  0.00000000000E+00 0.  1.
<mgrwt>
<rscale>  0 0.12500360E+03</rscale>
<asrwt>0</asrwt>
<pdfrwt beam="1">  1       21 0.68642835E-02 0.12500360E+03</pdfrwt>
<pdfrwt beam="2">  1       21 0.13469861E-01 0.12500360E+03</pdfrwt>
<totfact> 0.73066467E+06</totfact>
</mgrwt>
</event>
<event>
 9    1  0.4458519E-002  0.1249996E+03  0.7818608E-02  0.1235070E+00
         21   -1    0    0  503  502  0.00000000000E+00  0.00000000000E+00  0.68372919184E+03  0.68372919184E+03  0.00000000000E+00 0. -1.
         21   -1    0    0  502  503 -0.00000000000E+00 -0.00000000000E+00 -0.57131211196E+01  0.57131211196E+01  0.00000000000E+00 0. -1.
         25    2    1    2    0    0  0.44408920985E-15  0.00000000000E+00  0.67801607072E+03  0.68944231296E+03  0.12499964298E+03 0.  0.
    9000006    2    3    3    0    0 -0.12869317190E+01 -0.14620025865E+02  0.39154762790E+03  0.39638993692E+03  0.60000298561E+02 0.  0.
    9000007    2    3    3    0    0  0.12869317190E+01  0.14620025865E+02  0.28646844282E+03  0.29305237604E+03  0.60001041835E+02 0.  0.
          5    1    4    4  501    0 -0.28235315404E+00 -0.33739989923E+02  0.14056836907E+03  0.14463755746E+03  0.47000000000E+01 0. -1.
         -5    1    4    4    0  501 -0.10045785650E+01  0.19119964058E+02  0.25097925882E+03  0.25175237946E+03  0.47000000000E+01 0. -1.
         12    1    5    5    0    0  0.10258825016E+02 -0.88118275090E+01  0.23880999017E+03  0.23919260691E+03  0.00000000000E+00 0.  1.
        -12    1    5    5    0    0 -0.89718932974E+01  0.23431853374E+02  0.47658452652E+02  0.53859769133E+02  0.00000000000E+00 0.  1.
<mgrwt>
<rscale>  0 0.12499964E+03</rscale>
<asrwt>0</asrwt>
<pdfrwt beam="1">  1       21 0.10518904E+00 0.12499964E+03</pdfrwt>
<pdfrwt beam="2">  1       21 0.87894225E-03 0.12499964E+03</pdfrwt>
<totfact> 0.33321476E+06</totfact>
</mgrwt>
</event>
<event>
 9    1  0.4458519E-002  0.1250008E+03  0.7818608E-02  0.1235068E+00
         21   -1    0    0  503  502  0.00000000000E+00  0.00000000000E+00  0.21503434062E+02  0.21503434062E+02  0.00000000000E+00 0.  1.
         21   -1    0    0  502  503 -0.00000000000E+00 -0.00000000000E+00 -0.18165940171E+03  0.18165940171E+03  0.00000000000E+00 0.  1.
         25    2    1    2    0    0  0.35527136788E-14  0.35527136788E-14 -0.16015596764E+03  0.20316283577E+03  0.12500081546E+03 0.  0.
    9000006    2    3    3    0    0  0.12820603946E+02  0.11593241935E+02 -0.84504641584E+02  0.10507155338E+03  0.60001881107E+02 0.  0.
    9000007    2    3    3    0    0 -0.12820603946E+02 -0.11593241935E+02 -0.75651326059E+02  0.98091282386E+02  0.60000045013E+02 0.  0.
          5    1    4    4  501    0  0.26552132876E+02 -0.59423549762E+01 -0.13949734279E+02  0.30935617488E+02  0.47000000000E+01 0. -1.
         -5    1    4    4    0  501 -0.13731528930E+02  0.17535596911E+02 -0.70554907305E+02  0.74135935892E+02  0.47000000000E+01 0. -1.
         12    1    5    5    0    0  0.17615382184E+02  0.12520953484E+02 -0.39556619869E+02  0.45075515982E+02  0.00000000000E+00 0.  1.
        -12    1    5    5    0    0 -0.30435986130E+02 -0.24114195419E+02 -0.36094706191E+02  0.53015766404E+02  0.00000000000E+00 0.  1.
<mgrwt>
<rscale>  0 0.12500082E+03</rscale>
<asrwt>0</asrwt>
<pdfrwt beam="1">  1       21 0.33082206E-02 0.12500082E+03</pdfrwt>
<pdfrwt beam="2">  1       21 0.27947600E-01 0.12500082E+03</pdfrwt>
<totfact> 0.64584808E+06</totfact>
</mgrwt>
</event>
<event>
 9    1  0.4458519E-002  0.1250001E+03  0.7818608E-02  0.1235069E+00
         21   -1    0    0  503  502  0.00000000000E+00  0.00000000000E+00  0.21033588712E+02  0.21033588712E+02  0.00000000000E+00 0.  1.
         21   -1    0    0  502  503 -0.00000000000E+00 -0.00000000000E+00 -0.18571521832E+03  0.18571521832E+03  0.00000000000E+00 0.  1.
         25    2    1    2    0    0 -0.17763568394E-14  0.00000000000E+00 -0.16468162961E+03  0.20674880704E+03  0.12500012032E+03 0.  0.
    9000006    2    3    3    0    0 -0.84793397252E+01  0.64101386378E+01 -0.59348332931E+02  0.85059972423E+02  0.59999876728E+02 0.  0.
    9000007    2    3    3    0    0  0.84793397252E+01 -0.64101386378E+01 -0.10533329668E+03  0.12168883461E+03  0.60000666665E+02 0.  0.
          5    1    4    4  501    0  0.22250985105E+02  0.34478182288E+01 -0.45324604878E+02  0.50827193470E+02  0.47000000000E+01 0.  1.
         -5    1    4    4    0  501 -0.30730324830E+02  0.29623204090E+01 -0.14023728053E+02  0.34232778953E+02  0.47000000000E+01 0.  1.
         12    1    5    5    0    0  0.10572690817E+02  0.37247478345E+01 -0.10983339169E+03  0.11040393773E+03  0.00000000000E+00 0.  1.
        -12    1    5    5    0    0 -0.20933510914E+01 -0.10134886472E+02  0.45000950037E+01  0.11284896882E+02  0.00000000000E+00 0.  1.
<mgrwt>
<rscale>  0 0.12500012E+03</rscale>
<asrwt>0</asrwt>
<pdfrwt beam="1">  1       21 0.32359368E-02 0.12500012E+03</pdfrwt>
<pdfrwt beam="2">  1       21 0.28571571E-01 0.12500012E+03</pdfrwt>
<totfact> 0.64203035E+06</totfact>
</mgrwt>
</event>
<event>
 9    1  0.4458519E-002  0.1249988E+03  0.7818608E-02  0.1235071E+00
         21   -1    0    0  503  502  0.00000000000E+00  0.00000000000E+00  0.34120159421E+02  0.34120159421E+02  0.00000000000E+00 0.  1.
         21   -1    0    0  502  503 -0.00000000000E+00 -0.00000000000E+00 -0.11448290099E+03  0.11448290099E+03  0.00000000000E+00 0.  1.
         25    2    1    2    0    0  0.35527136788E-14 -0.17763568394E-14 -0.80362741572E+02  0.14860306041E+03  0.12499879732E+03 0.  0.
    9000006    2    3    3    0    0  0.13164249483E+02 -0.11468899564E+02 -0.38821816451E+02  0.73566314124E+02  0.60000300163E+02 0.  0.
    9000007    2    3    3    0    0 -0.13164249483E+02  0.11468899564E+02 -0.41540925122E+02  0.75036746290E+02  0.60000264267E+02 0.  0.
          5    1    4    4  501    0  0.33878471350E+02  0.58226137956E+01 -0.25816949848E+02  0.43246486006E+02  0.47000000000E+01 0. -1.
         -5    1    4    4    0  501 -0.20714221866E+02 -0.17291513359E+02 -0.13004866603E+02  0.30319828119E+02  0.47000000000E+01 0. -1.
         12    1    5    5    0    0 -0.23196019334E+02  0.12922467568E+02  0.53299111762E+01  0.27082345433E+02  0.00000000000E+00 0. -1.
        -12    1    5    5    0    0  0.10031769851E+02 -0.14535680046E+01 -0.46870836298E+02  0.47954400857E+02  0.00000000000E+00 0. -1.
<mgrwt>
<rscale>  0 0.12499880E+03</rscale>
<asrwt>0</asrwt>
<pdfrwt beam="1">  1       21 0.52492552E-02 0.12499880E+03</pdfrwt>
<pdfrwt beam="2">  1       21 0.17612754E-01 0.12499880E+03</pdfrwt>
<totfact> 0.70937297E+06</totfact>
</mgrwt>
</event>
<event>
 9    1  0.4458519E-002  0.1250104E+03  0.7818608E-02  0.1235053E+00
         21   -1    0    0  503  502  0.00000000000E+00  0.00000000000E+00  0.16612193680E+02  0.16612193680E+02  0.00000000000E+00 0.  1.
         21   -1    0    0  502  503 -0.00000000000E+00 -0.00000000000E+00 -0.23518257019E+03  0.23518257019E+03  0.00000000000E+00 0.  1.
         25    2    1    2    0    0  0.00000000000E+00  0.00000000000E+00 -0.21857037651E+03  0.25179476387E+03  0.12501037407E+03 0.  0.
    9000006    2    3    3    0    0  0.82755344476E+01  0.13583442536E+02 -0.12407540653E+03  0.13873612597E+03  0.60000098018E+02 0.  0.
    9000007    2    3    3    0    0 -0.82755344476E+01 -0.13583442536E+02 -0.94494969975E+02  0.11305863789E+03  0.59999682253E+02 0.  0.
          5    1    4    4  501    0  0.27030676970E+02 -0.54009026312E+01 -0.30779384944E+02  0.41584706134E+02  0.47000000000E+01 0.  1.
         -5    1    4    4    0  501 -0.18755142523E+02  0.18984345167E+02 -0.93296021588E+02  0.97151419838E+02  0.47000000000E+01 0.  1.
         12    1    5    5    0    0 -0.22797785881E+01  0.11924706252E+02  0.26629036533E+01  0.12429282581E+02  0.00000000000E+00 0. -1.
        -12    1    5    5    0    0 -0.59957558594E+01 -0.25508148787E+02 -0.97157873629E+02  0.10062935531E+03  0.00000000000E+00 0. -1.
<mgrwt>
<rscale>  0 0.12501037E+03</rscale>
<asrwt>0</asrwt>
<pdfrwt beam="1">  1       21 0.25557224E-02 0.12501037E+03</pdfrwt>
<pdfrwt beam="2">  1       21 0.36181930E-01 0.12501037E+03</pdfrwt>
<totfact> 0.59694017E+06</totfact>
</mgrwt>
</event>
<event>
 9    1  0.4458519E-002  0.1250002E+03  0.7818608E-02  0.1235069E+00
         21   -1    0    0  503  502  0.00000000000E+00  0.00000000000E+00  0.60995800552E+01  0.60995800552E+01  0.00000000000E+00 0.  1.
         21   -1    0    0  502  503 -0.00000000000E+00 -0.00000000000E+00 -0.64041524204E+03  0.64041524204E+03  0.00000000000E+00 0.  1.
         25    2    1    2    0    0  0.35527136788E-14  0.35527136788E-14 -0.63431566199E+03  0.64651482210E+03  0.12500022460E+03 0.  0.
    9000006    2    3    3    0    0 -0.34737167113E+01  0.13765629515E+02 -0.37011888585E+03  0.37521931432E+03  0.59999874243E+02 0.  0.
    9000007    2    3    3    0    0  0.34737167113E+01 -0.13765629515E+02 -0.26419677614E+03  0.27129550778E+03  0.59997972945E+02 0.  0.
          5    1    4    4  501    0 -0.25031041122E+02  0.19539282472E+02 -0.12552578556E+03  0.12956523229E+03  0.47000000000E+01 0. -1.
         -5    1    4    4    0  501  0.21557324410E+02 -0.57736529561E+01 -0.24459310029E+03  0.24565408202E+03  0.47000000000E+01 0. -1.
         12    1    5    5    0    0 -0.16325941487E+02  0.79036359041E+01 -0.19865198093E+03  0.19947835309E+03  0.00000000000E+00 0.  1.
        -12    1    5    5    0    0  0.19799658199E+02 -0.21669265420E+02 -0.65544795208E+02  0.71817154688E+02  0.00000000000E+00 0.  1.
<mgrwt>
<rscale>  0 0.12500022E+03</rscale>
<asrwt>0</asrwt>
<pdfrwt beam="1">  1       21 0.93839715E-03 0.12500022E+03</pdfrwt>
<pdfrwt beam="2">  1       21 0.98525399E-01 0.12500022E+03</pdfrwt>
<totfact> 0.35069705E+06</totfact>
</mgrwt>
</event>
<event>
 9    1  0.4458519E-002  0.1249995E+03  0.7818608E-02  0.1235070E+00
         21   -1    0    0  503  502  0.00000000000E+00  0.00000000000E+00  0.16655457317E+01  0.16655457317E+01  0.00000000000E+00 0. -1.
         21   -1    0    0  502  503 -0.00000000000E+00 -0.00000000000E+00 -0.23453078120E+04  0.23453078120E+04  0.00000000000E+00 0. -1.
         25    2    1    2    0    0  0.00000000000E+00 -0.17763568394E-14 -0.23436422663E+04  0.23469733577E+04  0.12499947865E+03 0.  0.
    9000006    2    3    3    0    0 -0.15084179631E+02  0.86653374578E+01 -0.11357774109E+04  0.11374941434E+04  0.59999820851E+02 0.  0.
    9000007    2    3    3    0    0  0.15084179631E+02 -0.86653374578E+01 -0.12078648553E+04  0.12094792144E+04  0.59998671929E+02 0.  0.
          5    1    4    4  501    0  0.19198288535E+02 -0.24370114473E+01 -0.19481666344E+03  0.19583190664E+03  0.47000000000E+01 0. -1.
         -5    1    4    4    0  501 -0.34282468167E+02  0.11102348905E+02 -0.94096074749E+03  0.94166223674E+03  0.47000000000E+01 0. -1.
         12    1    5    5    0    0 -0.16801195520E+02 -0.13607014822E+02 -0.21369660944E+03  0.21478750408E+03  0.00000000000E+00 0. -1.
        -12    1    5    5    0    0  0.31885375151E+02  0.49416773643E+01 -0.99416824591E+03  0.99469171028E+03  0.00000000000E+00 0. -1.
<mgrwt>
<rscale>  0 0.12499948E+03</rscale>
<asrwt>0</asrwt>
<pdfrwt beam="1">  1       21 0.25623549E-03 0.12499948E+03</pdfrwt>
<pdfrwt beam="2">  1       21 0.36081985E+00 0.12499948E+03</pdfrwt>
<totfact> 0.50324353E+05</totfact>
</mgrwt>
</event>
<event>
 9    1  0.4458519E-002  0.1250030E+03  0.7818608E-02  0.1235065E+00
         21   -1    0    0  503  502  0.00000000000E+00  0.00000000000E+00  0.42775979901E+01  0.42775979901E+01  0.00000000000E+00 0. -1.
         21   -1    0    0  502  503 -0.00000000000E+00 -0.00000000000E+00 -0.91323192592E+03  0.91323192592E+03  0.00000000000E+00 0. -1.
         25    2    1    2    0    0 -0.88817841970E-15  0.00000000000E+00 -0.90895432793E+03  0.91750952391E+03  0.12500302478E+03 0.  0.
    9000006    2    3    3    0    0  0.74579647268E+01 -0.90559216689E+01 -0.35911870225E+03  0.36428542131E+03  0.59999957692E+02 0.  0.
    9000007    2    3    3    0    0 -0.74579647268E+01  0.90559216689E+01 -0.54983562569E+03  0.55322410260E+03  0.60000512235E+02 0.  0.
          5    1    4    4  501    0 -0.80680509578E+01 -0.31827960316E+02 -0.19773938391E+03  0.20050203603E+03  0.47000000000E+01 0. -1.
         -5    1    4    4    0  501  0.15526015685E+02  0.22772038647E+02 -0.16137931833E+03  0.16378338528E+03  0.47000000000E+01 0. -1.
         12    1    5    5    0    0 -0.78566690275E+01 -0.21830764867E+02 -0.37222720617E+03  0.37294959788E+03  0.00000000000E+00 0. -1.
        -12    1    5    5    0    0  0.39870430069E+00  0.30886686536E+02 -0.17760841952E+03  0.18027450472E+03  0.00000000000E+00 0. -1.
<mgrwt>
<rscale>  0 0.12500302E+03</rscale>
<asrwt>0</asrwt>
<pdfrwt beam="1">  1       21 0.65809221E-03 0.12500302E+03</pdfrwt>
<pdfrwt beam="2">  1       21 0.14049717E+00 0.12500302E+03</pdfrwt>
<totfact> 0.25799969E+06</totfact>
</mgrwt>
</event>
<event>
 9    1  0.4458519E-002  0.1249991E+03  0.7818608E-02  0.1235071E+00
         21   -1    0    0  503  502  0.00000000000E+00  0.00000000000E+00  0.25604433234E+03  0.25604433234E+03  0.00000000000E+00 0. -1.
         21   -1    0    0  502  503 -0.00000000000E+00 -0.00000000000E+00 -0.15255918089E+02  0.15255918089E+02  0.00000000000E+00 0. -1.
         25    2    1    2    0    0  0.17763568394E-14 -0.88817841970E-15  0.24078841425E+03  0.27130025043E+03  0.12499906178E+03 0.  0.
    9000006    2    3    3    0    0  0.13242209272E+02  0.11568045439E+01  0.95698637202E+02  0.11373202932E+03  0.60000425233E+02 0.  0.
    9000007    2    3    3    0    0 -0.13242209272E+02 -0.11568045439E+01  0.14508977705E+03  0.15756822111E+03  0.60000054962E+02 0.  0.
          5    1    4    4  501    0  0.35178892130E+02  0.59380439559E+01  0.41802010299E+02  0.55157165288E+02  0.47000000000E+01 0.  1.
         -5    1    4    4    0  501 -0.21936682858E+02 -0.47812394119E+01  0.53896626903E+02  0.58574864034E+02  0.47000000000E+01 0.  1.
         12    1    5    5    0    0 -0.17800743108E+02 -0.21681669993E+02  0.32063962609E+02  0.42603508858E+02  0.00000000000E+00 0.  1.
        -12    1    5    5    0    0  0.45585338354E+01  0.20524865449E+02  0.11302581444E+03  0.11496471225E+03  0.00000000000E+00 0.  1.
<mgrwt>
<rscale>  0 0.12499906E+03</rscale>
<asrwt>0</asrwt>
<pdfrwt beam="1">  1       21 0.39391433E-01 0.12499906E+03</pdfrwt>
<pdfrwt beam="2">  1       21 0.23470645E-02 0.12499906E+03</pdfrwt>
<totfact> 0.57930135E+06</totfact>
</mgrwt>
</event>
<event>
 9    1  0.4458519E-002  0.1249914E+03  0.7818608E-02  0.1235083E+00
         21   -1    0    0  503  502  0.00000000000E+00  0.00000000000E+00  0.63430873458E+01  0.63430873458E+01  0.00000000000E+00 0.  1.
         21   -1    0    0  502  503 -0.00000000000E+00 -0.00000000000E+00 -0.61574318598E+03  0.61574318598E+03  0.00000000000E+00 0.  1.
         25    2    1    2    0    0  0.00000000000E+00 -0.17763568394E-14 -0.60940009864E+03  0.62208627333E+03  0.12499140469E+03 0.  0.
    9000006    2    3    3    0    0 -0.11090117692E+02 -0.13397330215E+02 -0.29581263907E+03  0.30233692356E+03  0.60000156233E+02 0.  0.
    9000007    2    3    3    0    0  0.11090117692E+02  0.13397330215E+02 -0.31358745956E+03  0.31974934976E+03  0.60000605924E+02 0.  0.
          5    1    4    4  501    0 -0.16526249757E+02 -0.24033952185E+02 -0.28175700524E+03  0.28330169041E+03  0.47000000000E+01 0. -1.
         -5    1    4    4    0  501  0.54361320646E+01  0.10636621970E+02 -0.14055633836E+02  0.19035233155E+02  0.47000000000E+01 0. -1.
         12    1    5    5    0    0  0.15322538677E+02  0.11709886888E+02 -0.27293355388E+02  0.33418989972E+02  0.00000000000E+00 0.  1.
        -12    1    5    5    0    0 -0.42324209850E+01  0.16874433275E+01 -0.28629410418E+03  0.28633035979E+03  0.00000000000E+00 0.  1.
<mgrwt>
<rscale>  0 0.12499140E+03</rscale>
<asrwt>0</asrwt>
<pdfrwt beam="1">  1       21 0.97585947E-03 0.12499140E+03</pdfrwt>
<pdfrwt beam="2">  1       21 0.94729733E-01 0.12499140E+03</pdfrwt>
<totfact> 0.36120184E+06</totfact>
</mgrwt>
</event>
<event>
 9    1  0.4458519E-002  0.1250013E+03  0.7818608E-02  0.1235067E+00
         21   -1    0    0  503  502  0.00000000000E+00  0.00000000000E+00  0.17979999394E+03  0.17979999394E+03  0.00000000000E+00 0.  1.
         21   -1    0    0  502  503 -0.00000000000E+00 -0.00000000000E+00 -0.21725972482E+02  0.21725972482E+02  0.00000000000E+00 0.  1.
         25    2    1    2    0    0  0.00000000000E+00  0.35527136788E-14  0.15807402146E+03  0.20152596642E+03  0.12500127553E+03 0.  0.
    9000006    2    3    3    0    0  0.97941792136E+01  0.13834261879E+02  0.86088664306E+02  0.10629379517E+03  0.59998333498E+02 0.  0.
    9000007    2    3    3    0    0 -0.97941792136E+01 -0.13834261879E+02  0.71985357154E+02  0.95232171250E+02  0.59999683734E+02 0.  0.
          5    1    4    4  501    0  0.11816547535E+01  0.39491341892E+01 -0.85745140246E+01  0.10611515422E+02  0.47000000000E+01 0. -1.
         -5    1    4    4    0  501  0.86125244601E+01  0.98851276898E+01  0.94663178330E+02  0.95682279752E+02  0.47000000000E+01 0. -1.
         12    1    5    5    0    0  0.20854640343E+02 -0.21125418446E+02  0.25828013730E+02  0.39348260719E+02  0.00000000000E+00 0.  1.
        -12    1    5    5    0    0 -0.30648819557E+02  0.72911565670E+01  0.46157343423E+02  0.55883910531E+02  0.00000000000E+00 0.  1.
<mgrwt>
<rscale>  0 0.12500128E+03</rscale>
<asrwt>0</asrwt>
<pdfrwt beam="1">  1       21 0.27661537E-01 0.12500128E+03</pdfrwt>
<pdfrwt beam="2">  1       21 0.33424574E-02 0.12500128E+03</pdfrwt>
<totfact> 0.64760187E+06</totfact>
</mgrwt>
</event>
<event>
 9    1  0.4458519E-002  0.1249981E+03  0.7818608E-02  0.1235072E+00
         21   -1    0    0  503  502  0.00000000000E+00  0.00000000000E+00  0.13877926407E+03  0.13877926407E+03  0.00000000000E+00 0. -1.
         21   -1    0    0  502  503 -0.00000000000E+00 -0.00000000000E+00 -0.28146346001E+02  0.28146346001E+02  0.00000000000E+00 0. -1.
         25    2    1    2    0    0  0.00000000000E+00  0.00000000000E+00  0.11063291807E+03  0.16692561007E+03  0.12499806693E+03 0.  0.
    9000006    2    3    3    0    0 -0.60548394534E+01 -0.15092856572E+02  0.46688372443E+02  0.77744078963E+02  0.59999019094E+02 0.  0.
    9000007    2    3    3    0    0  0.60548394534E+01  0.15092856572E+02  0.63944545626E+02  0.89181531108E+02  0.59999876460E+02 0.  0.
          5    1    4    4  501    0  0.17987021318E+02  0.48698889582E+01 -0.23959895537E+01  0.19366969828E+02  0.47000000000E+01 0. -1.
         -5    1    4    4    0  501 -0.24041860771E+02 -0.19962745530E+02  0.49084361997E+02  0.58377109136E+02  0.47000000000E+01 0. -1.
         12    1    5    5    0    0  0.16332264612E+02 -0.18199057327E+02  0.13672758826E+02  0.28015939907E+02  0.00000000000E+00 0. -1.
        -12    1    5    5    0    0 -0.10277425159E+02  0.33291913899E+02  0.50271786800E+02  0.61165591201E+02  0.00000000000E+00 0. -1.
<mgrwt>
<rscale>  0 0.12499807E+03</rscale>
<asrwt>0</asrwt>
<pdfrwt beam="1">  1       21 0.21350656E-01 0.12499807E+03</pdfrwt>
<pdfrwt beam="2">  1       21 0.43302072E-02 0.12499807E+03</pdfrwt>
<totfact> 0.68686381E+06</totfact>
</mgrwt>
</event>
<event>
 9    1  0.4458519E-002  0.1250003E+03  0.7818608E-02  0.1235069E+00
         21   -1    0    0  503  502  0.00000000000E+00  0.00000000000E+00  0.53396718769E+02  0.53396718769E+02  0.00000000000E+00 0. -1.
         21   -1    0    0  502  503 -0.00000000000E+00 -0.00000000000E+00 -0.73155542829E+02  0.73155542829E+02  0.00000000000E+00 0. -1.
         25    2    1    2    0    0  0.17763568394E-14 -0.44408920985E-15 -0.19758824060E+02  0.12655226160E+03  0.12500025515E+03 0.  0.
    9000006    2    3    3    0    0 -0.34775182629E+01  0.19499920682E+01  0.73673284805E+01  0.60582047197E+02  0.60000094261E+02 0.  0.
    9000007    2    3    3    0    0  0.34775182629E+01 -0.19499920682E+01 -0.27126152540E+02  0.65970214400E+02  0.60002878548E+02 0.  0.
          5    1    4    4  501    0  0.11790183042E+02 -0.10824786515E+02  0.27318310528E+02  0.32008819244E+02  0.47000000000E+01 0. -1.
         -5    1    4    4    0  501 -0.15267701305E+02  0.12774778584E+02 -0.19950982048E+02  0.28573227953E+02  0.47000000000E+01 0. -1.
         12    1    5    5    0    0 -0.56502055356E+01 -0.50804020900E+01 -0.45011214444E+02  0.45648052902E+02  0.00000000000E+00 0.  1.
        -12    1    5    5    0    0  0.91277237984E+01  0.31304100218E+01  0.17885061904E+02  0.20322161498E+02  0.00000000000E+00 0.  1.
<mgrwt>
<rscale>  0 0.12500026E+03</rscale>
<asrwt>0</asrwt>
<pdfrwt beam="1">  1       21 0.82148798E-02 0.12500026E+03</pdfrwt>
<pdfrwt beam="2">  1       21 0.11254699E-01 0.12500026E+03</pdfrwt>
<totfact> 0.73829742E+06</totfact>
</mgrwt>
</event>
<event>
 9    1  0.4458519E-002  0.1250006E+03  0.7818608E-02  0.1235068E+00
         21   -1    0    0  503  502  0.00000000000E+00  0.00000000000E+00  0.84708173751E+02  0.84708173751E+02  0.00000000000E+00 0. -1.
         21   -1    0    0  502  503 -0.00000000000E+00 -0.00000000000E+00 -0.46114679974E+02  0.46114679974E+02  0.00000000000E+00 0. -1.
         25    2    1    2    0    0  0.00000000000E+00 -0.17763568394E-14  0.38593493778E+02  0.13082285372E+03  0.12500064518E+03 0.  0.
    9000006    2    3    3    0    0  0.71238878515E+01 -0.95916696076E+01  0.59086972014E+01  0.61459722089E+02  0.59996956862E+02 0.  0.
    9000007    2    3    3    0    0 -0.71238878515E+01  0.95916696076E+01  0.32684796576E+02  0.69363131636E+02  0.60001651636E+02 0.  0.
          5    1    4    4  501    0 -0.19726531481E+02 -0.20062951401E+02  0.13094064380E+02  0.31387936937E+02  0.47000000000E+01 0.  1.
         -5    1    4    4    0  501  0.26850419333E+02  0.10471281793E+02 -0.71853671781E+01  0.30071785152E+02  0.47000000000E+01 0.  1.
         12    1    5    5    0    0  0.21454345385E+02 -0.11913065111E+02  0.76439015108E+01  0.25702904244E+02  0.00000000000E+00 0. -1.
        -12    1    5    5    0    0 -0.28578233237E+02  0.21504734719E+02  0.25040895065E+02  0.43660227392E+02  0.00000000000E+00 0. -1.
<mgrwt>
<rscale>  0 0.12500065E+03</rscale>
<asrwt>0</asrwt>
<pdfrwt beam="1">  1       21 0.13032027E-01 0.12500065E+03</pdfrwt>
<pdfrwt beam="2">  1       21 0.70945662E-02 0.12500065E+03</pdfrwt>
<totfact> 0.73253347E+06</totfact>
</mgrwt>
</event>
<event>
 9    1  0.4458519E-002  0.1249987E+03  0.7818608E-02  0.1235071E+00
         21   -1    0    0  503  502  0.00000000000E+00  0.00000000000E+00  0.65379377937E+01  0.65379377937E+01  0.00000000000E+00 0. -1.
         21   -1    0    0  502  503 -0.00000000000E+00 -0.00000000000E+00 -0.59746189321E+03  0.59746189321E+03  0.00000000000E+00 0. -1.
         25    2    1    2    0    0 -0.17763568394E-14  0.00000000000E+00 -0.59092395542E+03  0.60399983100E+03  0.12499869906E+03 0.  0.
    9000006    2    3    3    0    0  0.12431632408E+02  0.23683440756E+01 -0.35383108905E+03  0.35910532027E+03  0.60000307757E+02 0.  0.
    9000007    2    3    3    0    0 -0.12431632408E+02 -0.23683440756E+01 -0.23709286637E+03  0.24489451074E+03  0.60001163047E+02 0.  0.
          5    1    4    4  501    0 -0.99914406130E+01 -0.18991019042E+02 -0.65669568221E+02  0.69246443087E+02  0.47000000000E+01 0. -1.
         -5    1    4    4    0  501  0.22423073021E+02  0.21359363118E+02 -0.28816152082E+03  0.28985887718E+03  0.47000000000E+01 0. -1.
         12    1    5    5    0    0 -0.17572178566E+02  0.24950223951E+02 -0.85714687507E+02  0.90985178954E+02  0.00000000000E+00 0.  1.
        -12    1    5    5    0    0  0.51405461578E+01 -0.27318568027E+02 -0.15137817886E+03  0.15390933178E+03  0.00000000000E+00 0.  1.
<mgrwt>
<rscale>  0 0.12499870E+03</rscale>
<asrwt>0</asrwt>
<pdfrwt beam="1">  1       21 0.10058365E-02 0.12499870E+03</pdfrwt>
<pdfrwt beam="2">  1       21 0.91917221E-01 0.12499870E+03</pdfrwt>
<totfact> 0.36913557E+06</totfact>
</mgrwt>
</event>
<event>
 9    1  0.4458519E-002  0.1250017E+03  0.7818608E-02  0.1235067E+00
         21   -1    0    0  503  502  0.00000000000E+00  0.00000000000E+00  0.13820996841E+02  0.13820996841E+02  0.00000000000E+00 0.  1.
         21   -1    0    0  502  503 -0.00000000000E+00 -0.00000000000E+00 -0.28263926832E+03  0.28263926832E+03  0.00000000000E+00 0.  1.
         25    2    1    2    0    0  0.00000000000E+00  0.17763568394E-14 -0.26881827148E+03  0.29646026516E+03  0.12500170294E+03 0.  0.
    9000006    2    3    3    0    0  0.78608053015E+00 -0.64314858485E+01 -0.95850045038E+02  0.11326635156E+03  0.60000444411E+02 0.  0.
    9000007    2    3    3    0    0 -0.78608053015E+00  0.64314858485E+01 -0.17296822645E+03  0.18319391360E+03  0.60000172407E+02 0.  0.
          5    1    4    4  501    0 -0.21235829604E+02  0.15919004251E+02 -0.57425353884E+02  0.63436081405E+02  0.47000000000E+01 0.  1.
         -5    1    4    4    0  501  0.22021910134E+02 -0.22350490099E+02 -0.38424691154E+02  0.49830270157E+02  0.47000000000E+01 0.  1.
         12    1    5    5    0    0 -0.13746470437E+02  0.65113487174E+01 -0.70409167118E+01  0.16761193863E+02  0.00000000000E+00 0. -1.
        -12    1    5    5    0    0  0.12960389907E+02 -0.79862868914E-01 -0.16592730973E+03  0.16643271974E+03  0.00000000000E+00 0. -1.
<mgrwt>
<rscale>  0 0.12500170E+03</rscale>
<asrwt>0</asrwt>
<pdfrwt beam="1">  1       21 0.21263071E-02 0.12500170E+03</pdfrwt>
<pdfrwt beam="2">  1       21 0.43482966E-01 0.12500170E+03</pdfrwt>
<totfact> 0.55749241E+06</totfact>
</mgrwt>
</event>
<event>
 9    1  0.4458519E-002  0.1250119E+03  0.7818608E-02  0.1235051E+00
         21   -1    0    0  503  502  0.00000000000E+00  0.00000000000E+00  0.13306663763E+02  0.13306663763E+02  0.00000000000E+00 0. -1.
         21   -1    0    0  502  503 -0.00000000000E+00 -0.00000000000E+00 -0.29361179795E+03  0.29361179795E+03  0.00000000000E+00 0. -1.
         25    2    1    2    0    0  0.35527136788E-14 -0.35527136788E-14 -0.28030513419E+03  0.30691846171E+03  0.12501189499E+03 0.  0.
    9000006    2    3    3    0    0 -0.10652032823E+02  0.12728829701E+02 -0.15393935484E+03  0.16605067656E+03  0.60000110918E+02 0.  0.
    9000007    2    3    3    0    0  0.10652032823E+02 -0.12728829701E+02 -0.12636577935E+03  0.14086778515E+03  0.59999448280E+02 0.  0.
          5    1    4    4  501    0 -0.81404159454E+01 -0.22221174429E+02 -0.39609669661E+02  0.46379552557E+02  0.47000000000E+01 0.  1.
         -5    1    4    4    0  501 -0.25116168773E+01  0.34950004130E+02 -0.11432968518E+03  0.11967112400E+03  0.47000000000E+01 0.  1.
         12    1    5    5    0    0  0.15800272653E+02  0.19339189024E+02 -0.83078756076E+02  0.86750980162E+02  0.00000000000E+00 0.  1.
        -12    1    5    5    0    0 -0.51482398304E+01 -0.32068018725E+02 -0.43287023275E+02  0.54116804990E+02  0.00000000000E+00 0.  1.
<mgrwt>
<rscale>  0 0.12501189E+03</rscale>
<asrwt>0</asrwt>
<pdfrwt beam="1">  1       21 0.20471790E-02 0.12501189E+03</pdfrwt>
<pdfrwt beam="2">  1       21 0.45171046E-01 0.12501189E+03</pdfrwt>
<totfact> 0.54869685E+06</totfact>
</mgrwt>
</event>
<event>
 9    1  0.4458519E-002  0.1250031E+03  0.7818608E-02  0.1235064E+00
         21   -1    0    0  503  502  0.00000000000E+00  0.00000000000E+00  0.12357817048E+02  0.12357817048E+02  0.00000000000E+00 0. -1.
         21   -1    0    0  502  503 -0.00000000000E+00 -0.00000000000E+00 -0.31611123028E+03  0.31611123028E+03  0.00000000000E+00 0. -1.
         25    2    1    2    0    0  0.00000000000E+00  0.17763568394E-14 -0.30375341323E+03  0.32846904733E+03  0.12500311597E+03 0.  0.
    9000006    2    3    3    0    0 -0.82778439624E+01  0.11115991549E+02 -0.12377723037E+03  0.13824953223E+03  0.60000353628E+02 0.  0.
    9000007    2    3    3    0    0  0.82778439624E+01 -0.11115991549E+02 -0.17997618286E+03  0.19021951509E+03  0.59999579642E+02 0.  0.
          5    1    4    4  501    0  0.23579245103E+02 -0.32565243927E+01 -0.68619991970E+02  0.72783095899E+02  0.47000000000E+01 0.  1.
         -5    1    4    4    0  501 -0.31857089065E+02  0.14372515942E+02 -0.55157238403E+02  0.65466436335E+02  0.47000000000E+01 0.  1.
         12    1    5    5    0    0 -0.18519445459E+02  0.64979330940E+00 -0.18762565937E+02  0.26370930435E+02  0.00000000000E+00 0. -1.
        -12    1    5    5    0    0  0.26797289422E+02 -0.11765784859E+02 -0.16121361692E+03  0.16384858466E+03  0.00000000000E+00 0. -1.
<mgrwt>
<rscale>  0 0.12500312E+03</rscale>
<asrwt>0</asrwt>
<pdfrwt beam="1">  1       21 0.19012026E-02 0.12500312E+03</pdfrwt>
<pdfrwt beam="2">  1       21 0.48632499E-01 0.12500312E+03</pdfrwt>
<totfact> 0.53164809E+06</totfact>
</mgrwt>
</event>
<event>
 9    1  0.4458519E-002  0.1249998E+03  0.7818608E-02  0.1235070E+00
         21   -1    0    0  503  502  0.00000000000E+00  0.00000000000E+00  0.85518790990E+02  0.85518790990E+02  0.00000000000E+00 0. -1.
         21   -1    0    0  502  503 -0.00000000000E+00 -0.00000000000E+00 -0.45676983801E+02  0.45676983801E+02  0.00000000000E+00 0. -1.
         25    2    1    2    0    0  0.88817841970E-15  0.00000000000E+00  0.39841807188E+02  0.13119577479E+03  0.12499984689E+03 0.  0.
    9000006    2    3    3    0    0  0.68981180101E+01 -0.73523792835E+00  0.30554612458E+01  0.60475300753E+02  0.59998346234E+02 0.  0.
    9000007    2    3    3    0    0 -0.68981180101E+01  0.73523792835E+00  0.36786345943E+02  0.70720474038E+02  0.60000213279E+02 0.  0.
          5    1    4    4  501    0 -0.98334219588E+01 -0.14910525150E+02  0.23663410218E+02  0.30017776914E+02  0.47000000000E+01 0. -1.
         -5    1    4    4    0  501  0.16731539969E+02  0.14175287222E+02 -0.20607948973E+02  0.30457523839E+02  0.47000000000E+01 0. -1.
         12    1    5    5    0    0  0.52561864066E+01 -0.93733558194E+01  0.49363109304E+02  0.50519341395E+02  0.00000000000E+00 0. -1.
        -12    1    5    5    0    0 -0.12154304417E+02  0.10108593748E+02 -0.12576763361E+02  0.20201132643E+02  0.00000000000E+00 0. -1.
<mgrwt>
<rscale>  0 0.12499985E+03</rscale>
<asrwt>0</asrwt>
<pdfrwt beam="1">  1       21 0.13156737E-01 0.12499985E+03</pdfrwt>
<pdfrwt beam="2">  1       21 0.70272283E-02 0.12499985E+03</pdfrwt>
<totfact> 0.73204587E+06</totfact>
</mgrwt>
</event>
<event>
 9    1  0.4458519E-002  0.1250042E+03  0.7818608E-02  0.1235063E+00
         21   -1    0    0  503  502  0.00000000000E+00  0.00000000000E+00  0.19045191194E+02  0.19045191194E+02  0.00000000000E+00 0. -1.
         21   -1    0    0  502  503 -0.00000000000E+00 -0.00000000000E+00 -0.20511792382E+03  0.20511792382E+03  0.00000000000E+00 0. -1.
         25    2    1    2    0    0  0.00000000000E+00  0.00000000000E+00 -0.18607273263E+03  0.22416311501E+03  0.12500416115E+03 0.  0.
    9000006    2    3    3    0    0 -0.12199463975E+02  0.20011594620E+01 -0.70804915745E+02  0.93627711457E+02  0.59999839154E+02 0.  0.
    9000007    2    3    3    0    0  0.12199463975E+02 -0.20011594620E+01 -0.11526781688E+03  0.13053540356E+03  0.59999920108E+02 0.  0.
          5    1    4    4  501    0  0.69923588775E+01 -0.25805538990E+02 -0.31765247280E+02  0.41784445192E+02  0.47000000000E+01 0.  1.
         -5    1    4    4    0  501 -0.19191822852E+02  0.27806698452E+02 -0.39039668465E+02  0.51843266265E+02  0.47000000000E+01 0.  1.
         12    1    5    5    0    0  0.41231414522E+01 -0.21461939153E+02 -0.10471335755E+03  0.10696963297E+03  0.00000000000E+00 0. -1.
        -12    1    5    5    0    0  0.80763225224E+01  0.19460779691E+02 -0.10554459326E+02  0.23565770587E+02  0.00000000000E+00 0. -1.
<mgrwt>
<rscale>  0 0.12500416E+03</rscale>
<asrwt>0</asrwt>
<pdfrwt beam="1">  1       21 0.29300293E-02 0.12500416E+03</pdfrwt>
<pdfrwt beam="2">  1       21 0.31556605E-01 0.12500416E+03</pdfrwt>
<totfact> 0.62392966E+06</totfact>
</mgrwt>
</event>
<event>
 9    1  0.4458519E-002  0.1250053E+03  0.7818608E-02  0.1235061E+00
         21   -1    0    0  503  502  0.00000000000E+00  0.00000000000E+00  0.11407499465E+02  0.11407499465E+02  0.00000000000E+00 0. -1.
         21   -1    0    0  502  503 -0.00000000000E+00 -0.00000000000E+00 -0.34245752711E+03  0.34245752711E+03  0.00000000000E+00 0. -1.
         25    2    1    2    0    0  0.00000000000E+00  0.44408920985E-15 -0.33105002765E+03  0.35386502658E+03  0.12500534480E+03 0.  0.
    9000006    2    3    3    0    0  0.96416696725E+01 -0.15227588648E+01 -0.12439791098E+03  0.13845639134E+03  0.60000428821E+02 0.  0.
    9000007    2    3    3    0    0 -0.96416696725E+01  0.15227588648E+01 -0.20665211667E+03  0.21540863524E+03  0.60004185038E+02 0.  0.
          5    1    4    4  501    0 -0.17811360909E+02  0.14594554965E+01 -0.98790587284E+02  0.10050395377E+03  0.47000000000E+01 0.  1.
         -5    1    4    4    0  501  0.27453030582E+02 -0.29822143614E+01 -0.25607323692E+02  0.37952437567E+02  0.47000000000E+01 0.  1.
         12    1    5    5    0    0 -0.73390788936E+01  0.30128975178E+02 -0.86948035330E+02  0.92312393925E+02  0.00000000000E+00 0.  1.
        -12    1    5    5    0    0 -0.23025907789E+01 -0.28606216313E+02 -0.11970408134E+03  0.12309624131E+03  0.00000000000E+00 0.  1.
<mgrwt>
<rscale>  0 0.12500534E+03</rscale>
<asrwt>0</asrwt>
<pdfrwt beam="1">  1       21 0.17550000E-02 0.12500534E+03</pdfrwt>
<pdfrwt beam="2">  1       21 0.52685770E-01 0.12500534E+03</pdfrwt>
<totfact> 0.51247391E+06</totfact>
</mgrwt>
</event>
<event>
 9    1  0.4458519E-002  0.1250022E+03  0.7818608E-02  0.1235066E+00
         21   -1    0    0  503  502  0.00000000000E+00  0.00000000000E+00  0.69282400265E+01  0.69282400265E+01  0.00000000000E+00 0.  1.
         21   -1    0    0  502  503 -0.00000000000E+00 -0.00000000000E+00 -0.56383540200E+03  0.56383540200E+03  0.00000000000E+00 0.  1.
         25    2    1    2    0    0  0.00000000000E+00  0.00000000000E+00 -0.55690716197E+03  0.57076364203E+03  0.12500219199E+03 0.  0.
    9000006    2    3    3    0    0 -0.16507435715E+02  0.44348018748E+01 -0.26119777049E+03  0.26854489470E+03  0.59999352132E+02 0.  0.
    9000007    2    3    3    0    0  0.16507435715E+02 -0.44348018748E+01 -0.29570939148E+03  0.30221874733E+03  0.59999701046E+02 0.  0.
          5    1    4    4  501    0 -0.38719964723E+02  0.22311374757E+01 -0.18085725362E+03  0.18502878108E+03  0.47000000000E+01 0.  1.
         -5    1    4    4    0  501  0.22212529008E+02  0.22036643991E+01 -0.80340516874E+02  0.83516113615E+02  0.47000000000E+01 0.  1.
         12    1    5    5    0    0 -0.22384536990E+02 -0.66527775763E+01 -0.10353913691E+03  0.10613990681E+03  0.00000000000E+00 0. -1.
        -12    1    5    5    0    0  0.38891972705E+02  0.22179757015E+01 -0.19217025457E+03  0.19607884052E+03  0.00000000000E+00 0. -1.
<mgrwt>
<rscale>  0 0.12500219E+03</rscale>
<asrwt>0</asrwt>
<pdfrwt beam="1">  1       21 0.10658826E-02 0.12500219E+03</pdfrwt>
<pdfrwt beam="2">  1       21 0.86743949E-01 0.12500219E+03</pdfrwt>
<totfact> 0.38446985E+06</totfact>
</mgrwt>
</event>
<event>
 9    1  0.4458519E-002  0.1250003E+03  0.7818608E-02  0.1235069E+00
         21   -1    0    0  503  502  0.00000000000E+00  0.00000000000E+00  0.57812472621E+02  0.57812472621E+02  0.00000000000E+00 0. -1.
         21   -1    0    0  502  503 -0.00000000000E+00 -0.00000000000E+00 -0.67567914163E+02  0.67567914163E+02  0.00000000000E+00 0. -1.
         25    2    1    2    0    0  0.00000000000E+00  0.35527136788E-14 -0.97554415418E+01  0.12538038678E+03  0.12500029100E+03 0.  0.
    9000006    2    3    3    0    0 -0.26233491289E+01  0.10422724841E+02 -0.18728755305E+02  0.63768264731E+02  0.60000917975E+02 0.  0.
    9000007    2    3    3    0    0  0.26233491289E+01 -0.10422724841E+02  0.89733137628E+01  0.61612122052E+02  0.60000150584E+02 0.  0.
          5    1    4    4  501    0 -0.21127620743E+01  0.33921728835E+02 -0.20089895352E+02  0.39759795598E+02  0.47000000000E+01 0. -1.
         -5    1    4    4    0  501 -0.51058705460E+00 -0.23499003995E+02  0.13611400471E+01  0.24008469133E+02  0.47000000000E+01 0. -1.
         12    1    5    5    0    0 -0.56753990949E+01  0.24412267132E+02  0.21241882715E+01  0.25153153227E+02  0.00000000000E+00 0. -1.
        -12    1    5    5    0    0  0.82987482238E+01 -0.34834991973E+02  0.68491254913E+01  0.36458968826E+02  0.00000000000E+00 0. -1.
<mgrwt>
<rscale>  0 0.12500029E+03</rscale>
<asrwt>0</asrwt>
<pdfrwt beam="1">  1       21 0.88942266E-02 0.12500029E+03</pdfrwt>
<pdfrwt beam="2">  1       21 0.10395064E-01 0.12500029E+03</pdfrwt>
<totfact> 0.73991621E+06</totfact>
</mgrwt>
</event>
<event>
 9    1  0.4458519E-002  0.1250046E+03  0.7818608E-02  0.1235062E+00
         21   -1    0    0  503  502  0.00000000000E+00  0.00000000000E+00  0.84510622310E+01  0.84510622310E+01  0.00000000000E+00 0.  1.
         21   -1    0    0  502  503 -0.00000000000E+00 -0.00000000000E+00 -0.46225387658E+03  0.46225387658E+03  0.00000000000E+00 0.  1.
         25    2    1    2    0    0  0.00000000000E+00  0.17763568394E-14 -0.45380281435E+03  0.47070493881E+03  0.12500458036E+03 0.  0.
    9000006    2    3    3    0    0 -0.17417153795E+01  0.10213412749E+02 -0.17373851738E+03  0.18409822545E+03  0.59997806786E+02 0.  0.
    9000007    2    3    3    0    0  0.17417153795E+01 -0.10213412749E+02 -0.28006429697E+03  0.28660671336E+03  0.60000419464E+02 0.  0.
          5    1    4    4  501    0 -0.63277700397E+01  0.42265003219E+01 -0.17490698042E+03  0.17513550691E+03  0.47000000000E+01 0. -1.
         -5    1    4    4    0  501  0.45860546603E+01  0.59869124271E+01  0.11684630434E+01  0.89627185408E+01  0.47000000000E+01 0. -1.
         12    1    5    5    0    0 -0.48690296267E+01  0.16067716323E+02 -0.22083355841E+03  0.22147085469E+03  0.00000000000E+00 0. -1.
        -12    1    5    5    0    0  0.66107450062E+01 -0.26281129072E+02 -0.59230738560E+02  0.65135858674E+02  0.00000000000E+00 0. -1.
<mgrwt>
<rscale>  0 0.12500458E+03</rscale>
<asrwt>0</asrwt>
<pdfrwt beam="1">  1       21 0.13001634E-02 0.12500458E+03</pdfrwt>
<pdfrwt beam="2">  1       21 0.71115983E-01 0.12500458E+03</pdfrwt>
<totfact> 0.43673719E+06</totfact>
</mgrwt>
</event>
<event>
 9    1  0.4458519E-002  0.1249978E+03  0.7818608E-02  0.1235073E+00
         21   -1    0    0  503  502  0.00000000000E+00  0.00000000000E+00  0.29204628871E+02  0.29204628871E+02  0.00000000000E+00 0.  1.
         21   -1    0    0  502  503 -0.00000000000E+00 -0.00000000000E+00 -0.13374981182E+03  0.13374981182E+03  0.00000000000E+00 0.  1.
         25    2    1    2    0    0  0.17763568394E-14  0.00000000000E+00 -0.10454518295E+03  0.16295444069E+03  0.12499781783E+03 0.  0.
    9000006    2    3    3    0    0 -0.14817718110E+01  0.16486148370E+02 -0.44889001989E+02  0.76740318794E+02  0.60000544107E+02 0.  0.
    9000007    2    3    3    0    0  0.14817718110E+01 -0.16486148370E+02 -0.59656180959E+02  0.86214121897E+02  0.60000217933E+02 0.  0.
          5    1    4    4  501    0 -0.22368201505E+02 -0.79056635286E+01 -0.39628930783E+01  0.24507763585E+02  0.47000000000E+01 0. -1.
         -5    1    4    4    0  501  0.20886429694E+02  0.24391811899E+02 -0.40926108911E+02  0.52232555209E+02  0.47000000000E+01 0. -1.
         12    1    5    5    0    0 -0.53592857964E+01 -0.18254553646E+02 -0.70638185651E+02  0.73155341193E+02  0.00000000000E+00 0.  1.
        -12    1    5    5    0    0  0.68410576073E+01  0.17684052753E+01  0.10982004692E+02  0.13058780703E+02  0.00000000000E+00 0.  1.
<mgrwt>
<rscale>  0 0.12499782E+03</rscale>
<asrwt>0</asrwt>
<pdfrwt beam="1">  1       21 0.44930199E-02 0.12499782E+03</pdfrwt>
<pdfrwt beam="2">  1       21 0.20576894E-01 0.12499782E+03</pdfrwt>
<totfact> 0.69164121E+06</totfact>
</mgrwt>
</event>
<event>
 9    1  0.4458519E-002  0.1250001E+03  0.7818608E-02  0.1235069E+00
         21   -1    0    0  503  502  0.00000000000E+00  0.00000000000E+00  0.44823660512E+02  0.44823660512E+02  0.00000000000E+00 0. -1.
         21   -1    0    0  502  503 -0.00000000000E+00 -0.00000000000E+00 -0.87147197486E+02  0.87147197486E+02  0.00000000000E+00 0. -1.
         25    2    1    2    0    0  0.00000000000E+00  0.88817841970E-15 -0.42323536974E+02  0.13197085800E+03  0.12500010231E+03 0.  0.
    9000006    2    3    3    0    0 -0.47377660331E+01  0.62632817897E+01 -0.37670661231E+02  0.71280610300E+02  0.60001429661E+02 0.  0.
    9000007    2    3    3    0    0  0.47377660331E+01 -0.62632817897E+01 -0.46528757429E+01  0.60690247698E+02  0.59999848226E+02 0.  0.
          5    1    4    4  501    0  0.14999953991E+01  0.11530445215E+02  0.13978126076E+02  0.18779754036E+02  0.47000000000E+01 0. -1.
         -5    1    4    4    0  501 -0.62377614322E+01 -0.52671634255E+01 -0.51648787307E+02  0.52500856265E+02  0.47000000000E+01 0. -1.
         12    1    5    5    0    0 -0.90760239289E+01 -0.24661088432E+02  0.15151908008E+02  0.30333542643E+02  0.00000000000E+00 0.  1.
        -12    1    5    5    0    0  0.13813789962E+02  0.18397806642E+02 -0.19804783751E+02  0.30356705055E+02  0.00000000000E+00 0.  1.
<mgrwt>
<rscale>  0 0.12500010E+03</rscale>
<asrwt>0</asrwt>
<pdfrwt beam="1">  1       21 0.68959479E-02 0.12500010E+03</pdfrwt>
<pdfrwt beam="2">  1       21 0.13407261E-01 0.12500010E+03</pdfrwt>
<totfact> 0.73099947E+06</totfact>
</mgrwt>
</event>
<event>
 9    1  0.4458519E-002  0.1249989E+03  0.7818608E-02  0.1235071E+00
         21   -1    0    0  503  502  0.00000000000E+00  0.00000000000E+00  0.13313934787E+03  0.13313934787E+03  0.00000000000E+00 0. -1.
         21   -1    0    0  502  503 -0.00000000000E+00 -0.00000000000E+00 -0.29339030086E+02  0.29339030086E+02  0.00000000000E+00 0. -1.
         25    2    1    2    0    0 -0.17763568394E-14  0.00000000000E+00  0.10380031778E+03  0.16247837795E+03  0.12499886932E+03 0.  0.
    9000006    2    3    3    0    0 -0.80480682480E+01 -0.12950756589E+01  0.31760991763E+02  0.68375548946E+02  0.60000053937E+02 0.  0.
    9000007    2    3    3    0    0  0.80480682480E+01  0.12950756589E+01  0.72039326019E+02  0.94102829008E+02  0.59993577245E+02 0.  0.
          5    1    4    4  501    0  0.31225857485E+01 -0.27513199561E+02  0.27266502095E+02  0.39144333285E+02  0.47000000000E+01 0. -1.
         -5    1    4    4    0  501 -0.11170653997E+02  0.26218123902E+02  0.44944896676E+01  0.29231215661E+02  0.47000000000E+01 0. -1.
         12    1    5    5    0    0 -0.22332035273E+02  0.60845783072E+01  0.10730857438E+02  0.25512608530E+02  0.00000000000E+00 0. -1.
        -12    1    5    5    0    0  0.30380103521E+02 -0.47895026483E+01  0.61308468581E+02  0.68590220479E+02  0.00000000000E+00 0. -1.
<mgrwt>
<rscale>  0 0.12499887E+03</rscale>
<asrwt>0</asrwt>
<pdfrwt beam="1">  1       21 0.20482976E-01 0.12499887E+03</pdfrwt>
<pdfrwt beam="2">  1       21 0.45136970E-02 0.12499887E+03</pdfrwt>
<totfact> 0.69219915E+06</totfact>
</mgrwt>
</event>
<event>
 9    1  0.4458519E-002  0.1249989E+03  0.7818608E-02  0.1235071E+00
         21   -1    0    0  503  502  0.00000000000E+00  0.00000000000E+00  0.31657042881E+02  0.31657042881E+02  0.00000000000E+00 0. -1.
         21   -1    0    0  502  503 -0.00000000000E+00 -0.00000000000E+00 -0.12339051703E+03  0.12339051703E+03  0.00000000000E+00 0. -1.
         25    2    1    2    0    0  0.17763568394E-14 -0.35527136788E-14 -0.91733474149E+02  0.15504755991E+03  0.12499886222E+03 0.  0.
    9000006    2    3    3    0    0 -0.18563149804E+01  0.12565720819E+02 -0.30941257353E+02  0.68692844302E+02  0.60000018389E+02 0.  0.
    9000007    2    3    3    0    0  0.18563149804E+01 -0.12565720819E+02 -0.60792216796E+02  0.86354715609E+02  0.60000833661E+02 0.  0.
          5    1    4    4  501    0 -0.16035036081E+02 -0.10795550240E+02 -0.35401167070E+02  0.40607867673E+02  0.47000000000E+01 0.  1.
         -5    1    4    4    0  501  0.14178721100E+02  0.23361271060E+02  0.44599097161E+01  0.28084976629E+02  0.47000000000E+01 0.  1.
         12    1    5    5    0    0 -0.11083823549E+02  0.20932044385E+02 -0.34501120651E+02  0.41848882336E+02  0.00000000000E+00 0.  1.
        -12    1    5    5    0    0  0.12940138530E+02 -0.33497765204E+02 -0.26291096145E+02  0.44505833273E+02  0.00000000000E+00 0.  1.
<mgrwt>
<rscale>  0 0.12499886E+03</rscale>
<asrwt>0</asrwt>
<pdfrwt beam="1">  1       21 0.48703142E-02 0.12499886E+03</pdfrwt>
<pdfrwt beam="2">  1       21 0.18983157E-01 0.12499886E+03</pdfrwt>
<totfact> 0.70131778E+06</totfact>
</mgrwt>
</event>
<event>
 9    1  0.4458519E-002  0.1250020E+03  0.7818608E-02  0.1235066E+00
         21   -1    0    0  503  502  0.00000000000E+00  0.00000000000E+00  0.41830674852E+02  0.41830674852E+02  0.00000000000E+00 0.  1.
         21   -1    0    0  502  503 -0.00000000000E+00 -0.00000000000E+00 -0.93385397479E+02  0.93385397479E+02  0.00000000000E+00 0.  1.
         25    2    1    2    0    0 -0.35527136788E-14 -0.88817841970E-15 -0.51554722627E+02  0.13521607233E+03  0.12500198715E+03 0.  0.
    9000006    2    3    3    0    0  0.16910018055E+02  0.41963113096E+01 -0.24016170578E+02  0.66939185065E+02  0.60004335750E+02 0.  0.
    9000007    2    3    3    0    0 -0.16910018055E+02 -0.41963113096E+01 -0.27538552049E+02  0.68276887266E+02  0.59998364532E+02 0.  0.
          5    1    4    4  501    0  0.17004908782E+02  0.16727031193E+02 -0.39556455225E+02  0.46430201864E+02  0.47000000000E+01 0. -1.
         -5    1    4    4    0  501 -0.94890727323E-01 -0.12530719883E+02  0.15540284647E+02  0.20508983201E+02  0.47000000000E+01 0. -1.
         12    1    5    5    0    0 -0.23175442589E+01 -0.94149091539E+01 -0.44358515785E+02  0.45405830556E+02  0.00000000000E+00 0. -1.
        -12    1    5    5    0    0 -0.14592473796E+02  0.52185978443E+01  0.16819963736E+02  0.22871056710E+02  0.00000000000E+00 0. -1.
<mgrwt>
<rscale>  0 0.12500199E+03</rscale>
<asrwt>0</asrwt>
<pdfrwt beam="1">  1       21 0.64354884E-02 0.12500199E+03</pdfrwt>
<pdfrwt beam="2">  1       21 0.14366984E-01 0.12500199E+03</pdfrwt>
<totfact> 0.72664192E+06</totfact>
</mgrwt>
</event>
<event>
 9    1  0.4458519E-002  0.1249957E+03  0.7818608E-02  0.1235076E+00
         21   -1    0    0  503  502  0.00000000000E+00  0.00000000000E+00  0.91159064132E+01  0.91159064132E+01  0.00000000000E+00 0. -1.
         21   -1    0    0  502  503 -0.00000000000E+00 -0.00000000000E+00 -0.42847973664E+03  0.42847973664E+03  0.00000000000E+00 0. -1.
         25    2    1    2    0    0  0.00000000000E+00  0.00000000000E+00 -0.41936383023E+03  0.43759564305E+03  0.12499569879E+03 0.  0.
    9000006    2    3    3    0    0 -0.33610837917E+01  0.12952832524E+02 -0.24913285058E+03  0.25660548494E+03  0.60001040929E+02 0.  0.
    9000007    2    3    3    0    0  0.33610837917E+01 -0.12952832524E+02 -0.17023097965E+03  0.18099015811E+03  0.59998151179E+02 0.  0.
          5    1    4    4  501    0 -0.13936912370E+02  0.14060451821E+01 -0.12344201875E+02  0.19253150636E+02  0.47000000000E+01 0. -1.
         -5    1    4    4    0  501  0.10575828578E+02  0.11546787342E+02 -0.23678864870E+03  0.23735233431E+03  0.47000000000E+01 0. -1.
         12    1    5    5    0    0 -0.15008721531E+02 -0.25505231142E+02 -0.45410768940E+02  0.54202550432E+02  0.00000000000E+00 0.  1.
        -12    1    5    5    0    0  0.18369805323E+02  0.12552398618E+02 -0.12482021071E+03  0.12678760768E+03  0.00000000000E+00 0.  1.
<mgrwt>
<rscale>  0 0.12499570E+03</rscale>
<asrwt>0</asrwt>
<pdfrwt beam="1">  1       21 0.14024471E-02 0.12499570E+03</pdfrwt>
<pdfrwt beam="2">  1       21 0.65919960E-01 0.12499570E+03</pdfrwt>
<totfact> 0.45648602E+06</totfact>
</mgrwt>
</event>
<event>
 9    1  0.4458519E-002  0.1250012E+03  0.7818608E-02  0.1235067E+00
         21   -1    0    0  503  502  0.00000000000E+00  0.00000000000E+00  0.64391378507E+03  0.64391378507E+03  0.00000000000E+00 0. -1.
         21   -1    0    0  502  503 -0.00000000000E+00 -0.00000000000E+00 -0.60665360598E+01  0.60665360598E+01  0.00000000000E+00 0. -1.
         25    2    1    2    0    0 -0.17763568394E-14 -0.71054273576E-14  0.63784724901E+03  0.64998032113E+03  0.12500121914E+03 0.  0.
    9000006    2    3    3    0    0  0.65135495240E+01 -0.16098166509E+02  0.30771007852E+03  0.31398607500E+03  0.60001546477E+02 0.  0.
    9000007    2    3    3    0    0 -0.65135495240E+01  0.16098166509E+02  0.33013717049E+03  0.33599424613E+03  0.60000039998E+02 0.  0.
          5    1    4    4  501    0 -0.94992826173E+01 -0.33456728559E+02  0.22904499460E+03  0.23171812318E+03  0.47000000000E+01 0. -1.
         -5    1    4    4    0  501  0.16012832141E+02  0.17358562051E+02  0.78665083917E+02  0.82267951824E+02  0.47000000000E+01 0. -1.
         12    1    5    5    0    0  0.16444119386E+02  0.25364202263E+02  0.25719308105E+03  0.25896338111E+03  0.00000000000E+00 0.  1.
        -12    1    5    5    0    0 -0.22957668910E+02 -0.92660357540E+01  0.72944089443E+02  0.77030865016E+02  0.00000000000E+00 0.  1.
<mgrwt>
<rscale>  0 0.12500122E+03</rscale>
<asrwt>0</asrwt>
<pdfrwt beam="1">  1       21 0.99063605E-01 0.12500122E+03</pdfrwt>
<pdfrwt beam="2">  1       21 0.93331375E-03 0.12500122E+03</pdfrwt>
<totfact> 0.34924309E+06</totfact>
</mgrwt>
</event>
<event>
 9    1  0.4458519E-002  0.1249918E+03  0.7818608E-02  0.1235082E+00
         21   -1    0    0  503  502  0.00000000000E+00  0.00000000000E+00  0.50660392568E+01  0.50660392568E+01  0.00000000000E+00 0.  1.
         21   -1    0    0  502  503 -0.00000000000E+00 -0.00000000000E+00 -0.77096519057E+03  0.77096519057E+03  0.00000000000E+00 0.  1.
         25    2    1    2    0    0  0.35527136788E-14  0.00000000000E+00 -0.76589915131E+03  0.77603122982E+03  0.12499183847E+03 0.  0.
    9000006    2    3    3    0    0  0.96386254484E+01 -0.10204712312E+02 -0.44763194817E+03  0.45185373589E+03  0.60003319599E+02 0.  0.
    9000007    2    3    3    0    0 -0.96386254484E+01  0.10204712312E+02 -0.31826720314E+03  0.32417749393E+03  0.59999964363E+02 0.  0.
          5    1    4    4  501    0  0.34429230346E+02 -0.10650954285E+02 -0.27242805679E+03  0.27484168326E+03  0.47000000000E+01 0. -1.
         -5    1    4    4    0  501 -0.24790604898E+02  0.44624197287E+00 -0.17520389138E+03  0.17701205263E+03  0.47000000000E+01 0. -1.
         12    1    5    5    0    0  0.22261004479E+02 -0.73304615406E+01 -0.16445011221E+03  0.16611179185E+03  0.00000000000E+00 0.  1.
        -12    1    5    5    0    0 -0.31899629927E+02  0.17535173852E+02 -0.15381709093E+03  0.15806570208E+03  0.00000000000E+00 0.  1.
<mgrwt>
<rscale>  0 0.12499184E+03</rscale>
<asrwt>0</asrwt>
<pdfrwt beam="1">  1       21 0.77939131E-03 0.12499184E+03</pdfrwt>
<pdfrwt beam="2">  1       21 0.11860993E+00 0.12499184E+03</pdfrwt>
<totfact> 0.30178576E+06</totfact>
</mgrwt>
</event>
<event>
 9    1  0.4458519E-002  0.1250027E+03  0.7818608E-02  0.1235065E+00
         21   -1    0    0  503  502  0.00000000000E+00  0.00000000000E+00  0.38679868262E+01  0.38679868262E+01  0.00000000000E+00 0. -1.
         21   -1    0    0  502  503 -0.00000000000E+00 -0.00000000000E+00 -0.10099363032E+04  0.10099363032E+04  0.00000000000E+00 0. -1.
         25    2    1    2    0    0  0.35527136788E-14  0.00000000000E+00 -0.10060683164E+04  0.10138042901E+04  0.12500272503E+03 0.  0.
    9000006    2    3    3    0    0  0.13145253960E+02  0.11564963452E+02 -0.50107870893E+03  0.50496172231E+03  0.59999353120E+02 0.  0.
    9000007    2    3    3    0    0 -0.13145253960E+02 -0.11564963452E+02 -0.50498960748E+03  0.50884256776E+03  0.59997575051E+02 0.  0.
          5    1    4    4  501    0 -0.14894666382E+02  0.25762365472E+02 -0.20921353463E+03  0.21137157717E+03  0.47000000000E+01 0.  1.
         -5    1    4    4    0  501  0.28039920342E+02 -0.14197402020E+02 -0.29186517430E+03  0.29359014515E+03  0.47000000000E+01 0.  1.
         12    1    5    5    0    0 -0.11554068814E+02  0.22995941117E+02 -0.28367919656E+03  0.28484416156E+03  0.00000000000E+00 0.  1.
        -12    1    5    5    0    0 -0.15911851461E+01 -0.34560904569E+02 -0.22131041093E+03  0.22399840620E+03  0.00000000000E+00 0.  1.
<mgrwt>
<rscale>  0 0.12500273E+03</rscale>
<asrwt>0</asrwt>
<pdfrwt beam="1">  1       21 0.59507513E-03 0.12500273E+03</pdfrwt>
<pdfrwt beam="2">  1       21 0.15537476E+00 0.12500273E+03</pdfrwt>
<totfact> 0.23274972E+06</totfact>
</mgrwt>
</event>
<event>
 9    1  0.4458519E-002  0.1249997E+03  0.7818608E-02  0.1235070E+00
         21   -1    0    0  503  502  0.00000000000E+00  0.00000000000E+00  0.32515252379E+02  0.32515252379E+02  0.00000000000E+00 0.  1.
         21   -1    0    0  502  503 -0.00000000000E+00 -0.00000000000E+00 -0.12013535041E+03  0.12013535041E+03  0.00000000000E+00 0.  1.
         25    2    1    2    0    0  0.00000000000E+00 -0.88817841970E-15 -0.87620098033E+02  0.15265060279E+03  0.12499969981E+03 0.  0.
    9000006    2    3    3    0    0 -0.26327945740E+01  0.33361851765E+01 -0.23079013033E+02  0.64424859130E+02  0.59998832426E+02 0.  0.
    9000007    2    3    3    0    0  0.26327945740E+01 -0.33361851765E+01 -0.64541085000E+02  0.88225743661E+02  0.60001403757E+02 0.  0.
          5    1    4    4  501    0  0.58654023696E+01  0.29351974766E+02 -0.36158733794E+01  0.30514028051E+02  0.47000000000E+01 0. -1.
         -5    1    4    4    0  501 -0.84981969436E+01 -0.26015789590E+02 -0.19463139653E+02  0.33910831078E+02  0.47000000000E+01 0. -1.
         12    1    5    5    0    0 -0.25074144949E+02  0.68210691230E+01 -0.47514562355E+02  0.54156009498E+02  0.00000000000E+00 0. -1.
        -12    1    5    5    0    0  0.27706939523E+02 -0.10157254299E+02 -0.17026522644E+02  0.34069734163E+02  0.00000000000E+00 0. -1.
<mgrwt>
<rscale>  0 0.12499970E+03</rscale>
<asrwt>0</asrwt>
<pdfrwt beam="1">  1       21 0.50023464E-02 0.12499970E+03</pdfrwt>
<pdfrwt beam="2">  1       21 0.18482362E-01 0.12499970E+03</pdfrwt>
<totfact> 0.70428341E+06</totfact>
</mgrwt>
</event>
<event>
 9    1  0.4458519E-002  0.1249995E+03  0.7818608E-02  0.1235070E+00
         21   -1    0    0  503  502  0.00000000000E+00  0.00000000000E+00  0.46805108761E+01  0.46805108761E+01  0.00000000000E+00 0. -1.
         21   -1    0    0  502  503 -0.00000000000E+00 -0.00000000000E+00 -0.83457113091E+03  0.83457113091E+03  0.00000000000E+00 0. -1.
         25    2    1    2    0    0  0.35527136788E-14  0.22204460493E-14 -0.82989062004E+03  0.83925164179E+03  0.12499950808E+03 0.  0.
    9000006    2    3    3    0    0  0.10094680485E+02  0.31330240755E+01 -0.32142651159E+03  0.32715055821E+03  0.60006391054E+02 0.  0.
    9000007    2    3    3    0    0 -0.10094680485E+02 -0.31330240755E+01 -0.50846410845E+03  0.51210108358E+03  0.60000431788E+02 0.  0.
          5    1    4    4  501    0  0.20023948290E+02  0.11290179252E+01 -0.31158730260E+03  0.31226746601E+03  0.47000000000E+01 0. -1.
         -5    1    4    4    0  501 -0.99292678053E+01  0.20040061503E+01 -0.98392089939E+01  0.14883092200E+02  0.47000000000E+01 0. -1.
         12    1    5    5    0    0  0.93691619224E+01  0.13021575481E+02 -0.42119594949E+02  0.45071087205E+02  0.00000000000E+00 0. -1.
        -12    1    5    5    0    0 -0.19463842407E+02 -0.16154599557E+02 -0.46634451350E+03  0.46702999638E+03  0.00000000000E+00 0. -1.
<mgrwt>
<rscale>  0 0.12499951E+03</rscale>
<asrwt>0</asrwt>
<pdfrwt beam="1">  1       21 0.72007965E-03 0.12499951E+03</pdfrwt>
<pdfrwt beam="2">  1       21 0.12839537E+00 0.12499951E+03</pdfrwt>
<totfact> 0.28103313E+06</totfact>
</mgrwt>
</event>
<event>
 9    1  0.4458519E-002  0.1250007E+03  0.7818608E-02  0.1235068E+00
         21   -1    0    0  503  502  0.00000000000E+00  0.00000000000E+00  0.11737864267E+03  0.11737864267E+03  0.00000000000E+00 0. -1.
         21   -1    0    0  502  503 -0.00000000000E+00 -0.00000000000E+00 -0.33279438095E+02  0.33279438095E+02  0.00000000000E+00 0. -1.
         25    2    1    2    0    0  0.00000000000E+00  0.17763568394E-14  0.84099204578E+02  0.15065808077E+03  0.12500072436E+03 0.  0.
    9000006    2    3    3    0    0 -0.34136706244E+00 -0.13760297202E+02  0.29023781267E+02  0.68057384297E+02  0.59999711397E+02 0.  0.
    9000007    2    3    3    0    0  0.34136706244E+00  0.13760297202E+02  0.55075423311E+02  0.82600696472E+02  0.60000920778E+02 0.  0.
          5    1    4    4  501    0 -0.29700008748E+02 -0.44230444227E+01  0.14133805389E+02  0.33518775281E+02  0.47000000000E+01 0. -1.
         -5    1    4    4    0  501  0.29358641685E+02 -0.93372527794E+01  0.14889975878E+02  0.34538609016E+02  0.47000000000E+01 0. -1.
         12    1    5    5    0    0  0.22843647350E+02 -0.13159562313E+02  0.26090825378E+02  0.37090935192E+02  0.00000000000E+00 0. -1.
        -12    1    5    5    0    0 -0.22502280287E+02  0.26919859515E+02  0.28984597933E+02  0.45509761280E+02  0.00000000000E+00 0. -1.
<mgrwt>
<rscale>  0 0.12500072E+03</rscale>
<asrwt>0</asrwt>
<pdfrwt beam="1">  1       21 0.18058252E-01 0.12500072E+03</pdfrwt>
<pdfrwt beam="2">  1       21 0.51199136E-02 0.12500072E+03</pdfrwt>
<totfact> 0.70675329E+06</totfact>
</mgrwt>
</event>
<event>
 9    1  0.4458519E-002  0.1250012E+03  0.7818608E-02  0.1235067E+00
         21   -1    0    0  503  502  0.00000000000E+00  0.00000000000E+00  0.12032433605E+02  0.12032433605E+02  0.00000000000E+00 0.  1.
         21   -1    0    0  502  503 -0.00000000000E+00 -0.00000000000E+00 -0.32464955689E+03  0.32464955689E+03  0.00000000000E+00 0.  1.
         25    2    1    2    0    0  0.00000000000E+00 -0.17763568394E-14 -0.31261712328E+03  0.33668199049E+03  0.12500118780E+03 0.  0.
    9000006    2    3    3    0    0  0.11063724055E+02  0.13540708539E+02 -0.15833128311E+03  0.17021920635E+03  0.60000218525E+02 0.  0.
    9000007    2    3    3    0    0 -0.11063724055E+02 -0.13540708539E+02 -0.15428584018E+03  0.16646278414E+03  0.59999843726E+02 0.  0.
          5    1    4    4  501    0 -0.17324589752E+02 -0.13030863588E+01 -0.15464003231E+02  0.23728987337E+02  0.47000000000E+01 0. -1.
         -5    1    4    4    0  501  0.28388313807E+02  0.14843794897E+02 -0.14286727987E+03  0.14649021901E+03  0.47000000000E+01 0. -1.
         12    1    5    5    0    0 -0.29112823623E+02 -0.17259126264E+02 -0.48849791911E+02  0.59428411627E+02  0.00000000000E+00 0. -1.
        -12    1    5    5    0    0  0.18049099568E+02  0.37184177258E+01 -0.10543604827E+03  0.10703437251E+03  0.00000000000E+00 0. -1.
<mgrwt>
<rscale>  0 0.12500119E+03</rscale>
<asrwt>0</asrwt>
<pdfrwt beam="1">  1       21 0.18511437E-02 0.12500119E+03</pdfrwt>
<pdfrwt beam="2">  1       21 0.49946083E-01 0.12500119E+03</pdfrwt>
<totfact> 0.52535738E+06</totfact>
</mgrwt>
</event>
<event>
 9    1  0.4458519E-002  0.1249993E+03  0.7818608E-02  0.1235070E+00
         21   -1    0    0  503  502  0.00000000000E+00  0.00000000000E+00  0.39082510794E+02  0.39082510794E+02  0.00000000000E+00 0. -1.
         21   -1    0    0  502  503 -0.00000000000E+00 -0.00000000000E+00 -0.99947662329E+02  0.99947662329E+02  0.00000000000E+00 0. -1.
         25    2    1    2    0    0  0.00000000000E+00  0.00000000000E+00 -0.60865151535E+02  0.13903017312E+03  0.12499928947E+03 0.  0.
    9000006    2    3    3    0    0 -0.11172880178E+01 -0.12089830615E+02 -0.16428064929E+02  0.63385785463E+02  0.60003867748E+02 0.  0.
    9000007    2    3    3    0    0  0.11172880178E+01  0.12089830615E+02 -0.44437086606E+02  0.75644387659E+02  0.60000053180E+02 0.  0.
          5    1    4    4  501    0  0.21802461171E+02 -0.12742418064E+02  0.10462420181E+02  0.27735694822E+02  0.47000000000E+01 0.  1.
         -5    1    4    4    0  501 -0.22919749189E+02  0.65258744961E+00 -0.26890485110E+02  0.35650090641E+02  0.47000000000E+01 0.  1.
         12    1    5    5    0    0  0.24536487025E+02  0.26813410607E+00 -0.42830380564E+02  0.49361448425E+02  0.00000000000E+00 0.  1.
        -12    1    5    5    0    0 -0.23419199007E+02  0.11821696509E+02 -0.16067060420E+01  0.26282939234E+02  0.00000000000E+00 0.  1.
<mgrwt>
<rscale>  0 0.12499929E+03</rscale>
<asrwt>0</asrwt>
<pdfrwt beam="1">  1       21 0.60126940E-02 0.12499929E+03</pdfrwt>
<pdfrwt beam="2">  1       21 0.15376563E-01 0.12499929E+03</pdfrwt>
<totfact> 0.72167477E+06</totfact>
</mgrwt>
</event>
<event>
 9    1  0.4458519E-002  0.1250006E+03  0.7818608E-02  0.1235068E+00
         21   -1    0    0  503  502  0.00000000000E+00  0.00000000000E+00  0.18543813638E+03  0.18543813638E+03  0.00000000000E+00 0.  1.
         21   -1    0    0  502  503 -0.00000000000E+00 -0.00000000000E+00 -0.21065188914E+02  0.21065188914E+02  0.00000000000E+00 0.  1.
         25    2    1    2    0    0 -0.88817841970E-15  0.17763568394E-14  0.16437294746E+03  0.20650332529E+03  0.12500062999E+03 0.  0.
    9000006    2    3    3    0    0 -0.69573498416E+01 -0.10813069814E+02  0.62574340322E+02  0.87640869489E+02  0.60000389520E+02 0.  0.
    9000007    2    3    3    0    0  0.69573498416E+01  0.10813069814E+02  0.10179860714E+03  0.11886245580E+03  0.59999998231E+02 0.  0.
          5    1    4    4  501    0 -0.36407986972E+01 -0.26268593329E+02  0.45450709266E+01  0.27313770892E+02  0.47000000000E+01 0. -1.
         -5    1    4    4    0  501 -0.33165511445E+01  0.15455523515E+02  0.58029269395E+02  0.60327098597E+02  0.47000000000E+01 0. -1.
         12    1    5    5    0    0  0.29674577480E+02  0.69011676310E+01  0.85124950337E+02  0.90412741543E+02  0.00000000000E+00 0.  1.
        -12    1    5    5    0    0 -0.22717227638E+02  0.39119021831E+01  0.16673656805E+02  0.28449714260E+02  0.00000000000E+00 0.  1.
<mgrwt>
<rscale>  0 0.12500063E+03</rscale>
<asrwt>0</asrwt>
<pdfrwt beam="1">  1       21 0.28528943E-01 0.12500063E+03</pdfrwt>
<pdfrwt beam="2">  1       21 0.32407984E-02 0.12500063E+03</pdfrwt>
<totfact> 0.64228290E+06</totfact>
</mgrwt>
</event>
<event>
 9    1  0.4458519E-002  0.1249981E+03  0.7818608E-02  0.1235072E+00
         21   -1    0    0  503  502  0.00000000000E+00  0.00000000000E+00  0.22994130279E+03  0.22994130279E+03  0.00000000000E+00 0. -1.
         21   -1    0    0  502  503 -0.00000000000E+00 -0.00000000000E+00 -0.16987509020E+02  0.16987509020E+02  0.00000000000E+00 0. -1.
         25    2    1    2    0    0  0.88817841970E-15  0.00000000000E+00  0.21295379377E+03  0.24692881181E+03  0.12499807927E+03 0.  0.
    9000006    2    3    3    0    0 -0.21135347730E+01  0.16644257882E+02  0.96658127333E+02  0.11499608601E+03  0.59998398882E+02 0.  0.
    9000007    2    3    3    0    0  0.21135347730E+01 -0.16644257882E+02  0.11629566644E+03  0.13193272580E+03  0.60000531294E+02 0.  0.
          5    1    4    4  501    0  0.27611218565E+02  0.58355489592E+01  0.32414450862E+02  0.43234472900E+02  0.47000000000E+01 0.  1.
         -5    1    4    4    0  501 -0.29724753338E+02  0.10808708923E+02  0.64243676472E+02  0.71761613110E+02  0.47000000000E+01 0.  1.
         12    1    5    5    0    0 -0.48629063460E+01 -0.20145584563E+02  0.63002516480E+01  0.21660692656E+02  0.00000000000E+00 0. -1.
        -12    1    5    5    0    0  0.69764411190E+01  0.35013266808E+01  0.10999541479E+03  0.11027203315E+03  0.00000000000E+00 0. -1.
<mgrwt>
<rscale>  0 0.12499808E+03</rscale>
<asrwt>0</asrwt>
<pdfrwt beam="1">  1       21 0.35375583E-01 0.12499808E+03</pdfrwt>
<pdfrwt beam="2">  1       21 0.26134631E-02 0.12499808E+03</pdfrwt>
<totfact> 0.60171463E+06</totfact>
</mgrwt>
</event>
<event>
 9    1  0.4458519E-002  0.1249978E+03  0.7818608E-02  0.1235073E+00
         21   -1    0    0  503  502  0.00000000000E+00  0.00000000000E+00  0.59929153844E+02  0.59929153844E+02  0.00000000000E+00 0. -1.
         21   -1    0    0  502  503 -0.00000000000E+00 -0.00000000000E+00 -0.65178849412E+02  0.65178849412E+02  0.00000000000E+00 0. -1.
         25    2    1    2    0    0  0.00000000000E+00  0.17763568394E-14 -0.52496955678E+01  0.12510800326E+03  0.12499781268E+03 0.  0.
    9000006    2    3    3    0    0  0.88721194090E+01 -0.24420439241E+01  0.12268890174E+02  0.61928951306E+02  0.59999927187E+02 0.  0.
    9000007    2    3    3    0    0 -0.88721194090E+01  0.24420439241E+01 -0.17518585741E+02  0.63179051951E+02  0.60000113980E+02 0.  0.
          5    1    4    4  501    0 -0.23550051423E+02 -0.76132581520E+01 -0.30853251949E+01  0.25380619639E+02  0.47000000000E+01 0.  1.
         -5    1    4    4    0  501  0.32422170832E+02  0.51712142279E+01  0.15354215369E+02  0.36548331667E+02  0.47000000000E+01 0.  1.
         12    1    5    5    0    0 -0.26235490165E+02  0.22131992147E+02 -0.79088114390E+01  0.35223221303E+02  0.00000000000E+00 0. -1.
        -12    1    5    5    0    0  0.17363370756E+02 -0.19689948223E+02 -0.96097743025E+01  0.27955830647E+02  0.00000000000E+00 0. -1.
<mgrwt>
<rscale>  0 0.12499781E+03</rscale>
<asrwt>0</asrwt>
<pdfrwt beam="1">  1       21 0.92198699E-02 0.12499781E+03</pdfrwt>
<pdfrwt beam="2">  1       21 0.10027515E-01 0.12499781E+03</pdfrwt>
<totfact> 0.74033134E+06</totfact>
</mgrwt>
</event>
<event>
 9    1  0.4458519E-002  0.1249979E+03  0.7818608E-02  0.1235073E+00
         21   -1    0    0  503  502  0.00000000000E+00  0.00000000000E+00  0.87051384873E+02  0.87051384873E+02  0.00000000000E+00 0.  1.
         21   -1    0    0  502  503 -0.00000000000E+00 -0.00000000000E+00 -0.44871380069E+02  0.44871380069E+02  0.00000000000E+00 0.  1.
         25    2    1    2    0    0  0.00000000000E+00  0.35527136788E-14  0.42180004804E+02  0.13192276494E+03  0.12499785240E+03 0.  0.
    9000006    2    3    3    0    0  0.46874117140E+01  0.16177411379E+02  0.26090837368E+02  0.67559793869E+02  0.59999279042E+02 0.  0.
    9000007    2    3    3    0    0 -0.46874117140E+01 -0.16177411379E+02  0.16089167436E+02  0.64362971073E+02  0.60000418908E+02 0.  0.
          5    1    4    4  501    0  0.24121493885E+02  0.12504889549E+02  0.35671733018E+02  0.45086375618E+02  0.47000000000E+01 0.  1.
         -5    1    4    4    0  501 -0.19434082171E+02  0.36725218298E+01 -0.95808956501E+01  0.22473418250E+02  0.47000000000E+01 0.  1.
         12    1    5    5    0    0 -0.67800663532E+01  0.99460547957E+01 -0.17821425009E+02  0.21505731681E+02  0.00000000000E+00 0. -1.
        -12    1    5    5    0    0  0.20926546391E+01 -0.26123466174E+02  0.33910592445E+02  0.42857239393E+02  0.00000000000E+00 0. -1.
<mgrwt>
<rscale>  0 0.12499785E+03</rscale>
<asrwt>0</asrwt>
<pdfrwt beam="1">  1       21 0.13392521E-01 0.12499785E+03</pdfrwt>
<pdfrwt beam="2">  1       21 0.69032892E-02 0.12499785E+03</pdfrwt>
<totfact> 0.73110596E+06</totfact>
</mgrwt>
</event>
<event>
 9    1  0.4458519E-002  0.1250007E+03  0.7818608E-02  0.1235068E+00
         21   -1    0    0  503  502  0.00000000000E+00  0.00000000000E+00  0.24332139104E+03  0.24332139104E+03  0.00000000000E+00 0.  1.
         21   -1    0    0  502  503 -0.00000000000E+00 -0.00000000000E+00 -0.16054050743E+02  0.16054050743E+02  0.00000000000E+00 0.  1.
         25    2    1    2    0    0  0.00000000000E+00  0.17763568394E-14  0.22726734030E+03  0.25937544179E+03  0.12500070334E+03 0.  0.
    9000006    2    3    3    0    0  0.82322975567E+01 -0.13449241242E+02  0.97884073137E+02  0.11588784487E+03  0.60000400004E+02 0.  0.
    9000007    2    3    3    0    0 -0.82322975567E+01  0.13449241242E+02  0.12938326716E+03  0.14348759692E+03  0.60000065293E+02 0.  0.
          5    1    4    4  501    0  0.28723497329E+02  0.85901238257E+01  0.37361347620E+02  0.48133042934E+02  0.47000000000E+01 0. -1.
         -5    1    4    4    0  501 -0.20491199773E+02 -0.22039365068E+02  0.60522725517E+02  0.67754801931E+02  0.47000000000E+01 0. -1.
         12    1    5    5    0    0 -0.11076889846E+02 -0.20388800522E+02  0.26898964382E+02  0.35524005408E+02  0.00000000000E+00 0.  1.
        -12    1    5    5    0    0  0.28445922892E+01  0.33838041764E+02  0.10248430278E+03  0.10796359151E+03  0.00000000000E+00 0.  1.
<mgrwt>
<rscale>  0 0.12500070E+03</rscale>
<asrwt>0</asrwt>
<pdfrwt beam="1">  1       21 0.37434058E-01 0.12500070E+03</pdfrwt>
<pdfrwt beam="2">  1       21 0.24698541E-02 0.12500070E+03</pdfrwt>
<totfact> 0.59005519E+06</totfact>
</mgrwt>
</event>
<event>
 9    1  0.4458519E-002  0.1250027E+03  0.7818608E-02  0.1235065E+00
         21   -1    0    0  503  502  0.00000000000E+00  0.00000000000E+00  0.62233472094E+02  0.62233472094E+02  0.00000000000E+00 0. -1.
         21   -1    0    0  502  503 -0.00000000000E+00 -0.00000000000E+00 -0.62770334785E+02  0.62770334785E+02  0.00000000000E+00 0. -1.
         25    2    1    2    0    0  0.00000000000E+00  0.00000000000E+00 -0.53686269098E+00  0.12500380688E+03  0.12500265402E+03 0.  0.
    9000006    2    3    3    0    0 -0.61549060550E+01  0.15902053034E+02  0.37000606589E+01  0.62484987833E+02  0.59999375800E+02 0.  0.
    9000007    2    3    3    0    0  0.61549060550E+01 -0.15902053034E+02 -0.42369233499E+01  0.62518819046E+02  0.59999108795E+02 0.  0.
          5    1    4    4  501    0  0.10755074643E+02 -0.52829261194E+01 -0.21577343263E+02  0.25124742411E+02  0.47000000000E+01 0. -1.
         -5    1    4    4    0  501 -0.16909980698E+02  0.21184979153E+02  0.25277403922E+02  0.37360245421E+02  0.47000000000E+01 0. -1.
         12    1    5    5    0    0  0.18803808845E+02 -0.22484338764E+02  0.19232464125E+02  0.35057330090E+02  0.00000000000E+00 0.  1.
        -12    1    5    5    0    0 -0.12648902790E+02  0.65822857302E+01 -0.23469387475E+02  0.27461488956E+02  0.00000000000E+00 0.  1.
<mgrwt>
<rscale>  0 0.12500265E+03</rscale>
<asrwt>0</asrwt>
<pdfrwt beam="1">  1       21 0.95743804E-02 0.12500265E+03</pdfrwt>
<pdfrwt beam="2">  1       21 0.96569746E-02 0.12500265E+03</pdfrwt>
<totfact> 0.74038043E+06</totfact>
</mgrwt>
</event>
<event>
 9    1  0.4458519E-002  0.1250001E+03  0.7818608E-02  0.1235069E+00
         21   -1    0    0  503  502  0.00000000000E+00  0.00000000000E+00  0.96800183878E+02  0.96800183878E+02  0.00000000000E+00 0. -1.
         21   -1    0    0  502  503 -0.00000000000E+00 -0.00000000000E+00 -0.40353813208E+02  0.40353813208E+02  0.00000000000E+00 0. -1.
         25    2    1    2    0    0  0.00000000000E+00  0.00000000000E+00  0.56446370670E+02  0.13715399709E+03  0.12500010462E+03 0.  0.
    9000006    2    3    3    0    0 -0.61184793159E+01 -0.12047542762E+02  0.40422950710E+02  0.73598171834E+02  0.60000807306E+02 0.  0.
    9000007    2    3    3    0    0  0.61184793159E+01  0.12047542762E+02  0.16023419960E+02  0.63555825252E+02  0.60000115504E+02 0.  0.
          5    1    4    4  501    0 -0.15308464310E+02 -0.24400178110E+02  0.47709228321E+02  0.55928331267E+02  0.47000000000E+01 0.  1.
         -5    1    4    4    0  501  0.91899849944E+01  0.12352635348E+02 -0.72862776105E+01  0.17669840567E+02  0.47000000000E+01 0.  1.
         12    1    5    5    0    0 -0.55825713912E+00  0.28133269593E+02 -0.11976258021E+02  0.30581420262E+02  0.00000000000E+00 0. -1.
        -12    1    5    5    0    0  0.66767364550E+01 -0.16085726831E+02  0.27999677982E+02  0.32974404990E+02  0.00000000000E+00 0. -1.
<mgrwt>
<rscale>  0 0.12500010E+03</rscale>
<asrwt>0</asrwt>
<pdfrwt beam="1">  1       21 0.14892336E-01 0.12500010E+03</pdfrwt>
<pdfrwt beam="2">  1       21 0.62082790E-02 0.12500010E+03</pdfrwt>
<totfact> 0.72412312E+06</totfact>
</mgrwt>
</event>
<event>
 9    1  0.4458519E-002  0.1249999E+03  0.7818608E-02  0.1235069E+00
         21   -1    0    0  503  502  0.00000000000E+00  0.00000000000E+00  0.12499619772E+02  0.12499619772E+02  0.00000000000E+00 0.  1.
         21   -1    0    0  502  503 -0.00000000000E+00 -0.00000000000E+00 -0.31250917486E+03  0.31250917486E+03  0.00000000000E+00 0.  1.
         25    2    1    2    0    0  0.17763568394E-14  0.00000000000E+00 -0.30000955509E+03  0.32500879463E+03  0.12499993378E+03 0.  0.
    9000006    2    3    3    0    0  0.69877468570E+01  0.11712427266E+02 -0.12152086061E+03  0.13621057317E+03  0.59999926014E+02 0.  0.
    9000007    2    3    3    0    0 -0.69877468570E+01 -0.11712427266E+02 -0.17848869448E+03  0.18879822146E+03  0.60004539928E+02 0.  0.
          5    1    4    4  501    0  0.14295637758E+02  0.21653892447E+02 -0.12006570518E+03  0.12292729509E+03  0.47000000000E+01 0. -1.
         -5    1    4    4    0  501 -0.73078909006E+01 -0.99414651812E+01 -0.14551554307E+01  0.13283278085E+02  0.47000000000E+01 0. -1.
         12    1    5    5    0    0  0.25586754045E+02 -0.75415139804E+01 -0.56730985049E+02  0.62689401659E+02  0.00000000000E+00 0. -1.
        -12    1    5    5    0    0 -0.32574500902E+02 -0.41709132854E+01 -0.12175770943E+03  0.12610881980E+03  0.00000000000E+00 0. -1.
<mgrwt>
<rscale>  0 0.12499993E+03</rscale>
<asrwt>0</asrwt>
<pdfrwt beam="1">  1       21 0.19230183E-02 0.12499993E+03</pdfrwt>
<pdfrwt beam="2">  1       21 0.48078337E-01 0.12499993E+03</pdfrwt>
<totfact> 0.53438880E+06</totfact>
</mgrwt>
</event>
<event>
 9    1  0.4458519E-002  0.1250022E+03  0.7818608E-02  0.1235066E+00
         21   -1    0    0  503  502  0.00000000000E+00  0.00000000000E+00  0.73757331737E+01  0.73757331737E+01  0.00000000000E+00 0.  1.
         21   -1    0    0  502  503 -0.00000000000E+00 -0.00000000000E+00 -0.52962733338E+03  0.52962733338E+03  0.00000000000E+00 0.  1.
         25    2    1    2    0    0  0.00000000000E+00 -0.17763568394E-14 -0.52225160020E+03  0.53700306655E+03  0.12500223826E+03 0.  0.
    9000006    2    3    3    0    0 -0.13421906894E+02  0.11235777890E+02 -0.26107429493E+03  0.26845150936E+03  0.60000292652E+02 0.  0.
    9000007    2    3    3    0    0  0.13421906894E+02 -0.11235777890E+02 -0.26117730527E+03  0.26855155719E+03  0.59999698225E+02 0.  0.
          5    1    4    4  501    0  0.56597075698E+01 -0.83411079690E+01 -0.76154935161E+01  0.13479321697E+02  0.47000000000E+01 0.  1.
         -5    1    4    4    0  501 -0.19081614463E+02  0.19576885859E+02 -0.25345880141E+03  0.25497218767E+03  0.47000000000E+01 0.  1.
         12    1    5    5    0    0  0.32020045931E+02 -0.69428204029E+01 -0.81140872054E+02  0.87506155293E+02  0.00000000000E+00 0.  1.
        -12    1    5    5    0    0 -0.18598139037E+02 -0.42929574867E+01 -0.18003643322E+03  0.18104540189E+03  0.00000000000E+00 0.  1.
<mgrwt>
<rscale>  0 0.12500224E+03</rscale>
<asrwt>0</asrwt>
<pdfrwt beam="1">  1       21 0.11347277E-02 0.12500224E+03</pdfrwt>
<pdfrwt beam="2">  1       21 0.81481163E-01 0.12500224E+03</pdfrwt>
<totfact> 0.40103632E+06</totfact>
</mgrwt>
</event>
<event>
 9    1  0.4458519E-002  0.1250001E+03  0.7818608E-02  0.1235069E+00
         21   -1    0    0  503  502  0.00000000000E+00  0.00000000000E+00  0.41868283848E+03  0.41868283848E+03  0.00000000000E+00 0. -1.
         21   -1    0    0  502  503 -0.00000000000E+00 -0.00000000000E+00 -0.93298736016E+01  0.93298736016E+01  0.00000000000E+00 0. -1.
         25    2    1    2    0    0  0.00000000000E+00  0.22204460493E-15  0.40935296488E+03  0.42801271208E+03  0.12500012739E+03 0.  0.
    9000006    2    3    3    0    0  0.15893971727E+02  0.17827216245E+01  0.18035039685E+03  0.19074070980E+03  0.59999635783E+02 0.  0.
    9000007    2    3    3    0    0 -0.15893971727E+02 -0.17827216245E+01  0.22900256802E+03  0.23727200229E+03  0.60000253946E+02 0.  0.
          5    1    4    4  501    0 -0.50765290128E+01  0.14415831743E+02  0.15260804668E+03  0.15344345298E+03  0.47000000000E+01 0. -1.
         -5    1    4    4    0  501  0.20970500740E+02 -0.12633110119E+02  0.27742350173E+02  0.37297256812E+02  0.47000000000E+01 0. -1.
         12    1    5    5    0    0  0.21139884289E+02  0.82198291174E+00  0.47302064433E+02  0.51817522744E+02  0.00000000000E+00 0.  1.
        -12    1    5    5    0    0 -0.37033856016E+02 -0.26047045363E+01  0.18170050359E+03  0.18545447954E+03  0.00000000000E+00 0.  1.
<mgrwt>
<rscale>  0 0.12500013E+03</rscale>
<asrwt>0</asrwt>
<pdfrwt beam="1">  1       21 0.64412730E-01 0.12500013E+03</pdfrwt>
<pdfrwt beam="2">  1       21 0.14353655E-02 0.12500013E+03</pdfrwt>
<totfact> 0.46237014E+06</totfact>
</mgrwt>
</event>
<event>
 9    1  0.4458519E-002  0.1250045E+03  0.7818608E-02  0.1235062E+00
         21   -1    0    0  503  502  0.00000000000E+00  0.00000000000E+00  0.81366258797E+03  0.81366258797E+03  0.00000000000E+00 0. -1.
         21   -1    0    0  502  503 -0.00000000000E+00 -0.00000000000E+00 -0.48011686152E+01  0.48011686152E+01  0.00000000000E+00 0. -1.
         25    2    1    2    0    0  0.17763568394E-14  0.24424906542E-14  0.80886141935E+03  0.81846375658E+03  0.12500450041E+03 0.  0.
    9000006    2    3    3    0    0  0.25987193138E+01 -0.66544177422E+00  0.29115452581E+03  0.29728477696E+03  0.60000704650E+02 0.  0.
    9000007    2    3    3    0    0 -0.25987193138E+01  0.66544177422E+00  0.51770689354E+03  0.52117897962E+03  0.59999208520E+02 0.  0.
          5    1    4    4  501    0 -0.28355255144E+02 -0.77188971284E-01  0.14108147032E+03  0.14397950452E+03  0.47000000000E+01 0.  1.
         -5    1    4    4    0  501  0.30953974458E+02 -0.58825280294E+00  0.15007305549E+03  0.15330527245E+03  0.47000000000E+01 0.  1.
         12    1    5    5    0    0 -0.14200679710E+02 -0.20337443940E+02  0.10979696087E+03  0.11256395314E+03  0.00000000000E+00 0.  1.
        -12    1    5    5    0    0  0.11601960396E+02  0.21002885715E+02  0.40790993267E+03  0.40861502648E+03  0.00000000000E+00 0.  1.
<mgrwt>
<rscale>  0 0.12500450E+03</rscale>
<asrwt>0</asrwt>
<pdfrwt beam="1">  1       21 0.12517875E+00 0.12500450E+03</pdfrwt>
<pdfrwt beam="2">  1       21 0.73864197E-03 0.12500450E+03</pdfrwt>
<totfact> 0.28756953E+06</totfact>
</mgrwt>
</event>
<event>
 9    1  0.4458519E-002  0.1250013E+03  0.7818608E-02  0.1235067E+00
         21   -1    0    0  503  502  0.00000000000E+00  0.00000000000E+00  0.66445302030E+02  0.66445302030E+02  0.00000000000E+00 0. -1.
         21   -1    0    0  502  503 -0.00000000000E+00 -0.00000000000E+00 -0.58790150446E+02  0.58790150446E+02  0.00000000000E+00 0. -1.
         25    2    1    2    0    0  0.17763568394E-14  0.00000000000E+00  0.76551515836E+01  0.12523545248E+03  0.12500126884E+03 0.  0.
    9000006    2    3    3    0    0 -0.13467088534E+02 -0.78336386833E+01  0.11817902262E+02  0.63106177734E+02  0.59999987381E+02 0.  0.
    9000007    2    3    3    0    0  0.13467088534E+02  0.78336386833E+01 -0.41627506786E+01  0.62129274742E+02  0.59999915984E+02 0.  0.
          5    1    4    4  501    0 -0.81101654323E+01  0.14226349351E+02 -0.18363262097E+02  0.25049215437E+02  0.47000000000E+01 0. -1.
         -5    1    4    4    0  501 -0.53569231013E+01 -0.22059988034E+02  0.30181164359E+02  0.38056962297E+02  0.47000000000E+01 0. -1.
         12    1    5    5    0    0  0.23867520726E+02 -0.19459402238E+02  0.56670302535E+01  0.31312012279E+02  0.00000000000E+00 0.  1.
        -12    1    5    5    0    0 -0.10400432193E+02  0.27293040921E+02 -0.98297809321E+01  0.30817262463E+02  0.00000000000E+00 0.  1.
<mgrwt>
<rscale>  0 0.12500127E+03</rscale>
<asrwt>0</asrwt>
<pdfrwt beam="1">  1       21 0.10222354E-01 0.12500127E+03</pdfrwt>
<pdfrwt beam="2">  1       21 0.90446385E-02 0.12500127E+03</pdfrwt>
<totfact> 0.74009385E+06</totfact>
</mgrwt>
</event>
<event>
 9    1  0.4458519E-002  0.1249982E+03  0.7818608E-02  0.1235072E+00
         21   -1    0    0  503  502  0.00000000000E+00  0.00000000000E+00  0.17664718174E+02  0.17664718174E+02  0.00000000000E+00 0.  1.
         21   -1    0    0  502  503 -0.00000000000E+00 -0.00000000000E+00 -0.22112633985E+03  0.22112633985E+03  0.00000000000E+00 0.  1.
         25    2    1    2    0    0  0.00000000000E+00  0.00000000000E+00 -0.20346162167E+03  0.23879105802E+03  0.12499815157E+03 0.  0.
    9000006    2    3    3    0    0  0.96544239786E+01  0.60240470164E+01 -0.76340305859E+02  0.97761721636E+02  0.60000123948E+02 0.  0.
    9000007    2    3    3    0    0 -0.96544239786E+01 -0.60240470164E+01 -0.12712131581E+03  0.14102933638E+03  0.59999564515E+02 0.  0.
          5    1    4    4  501    0 -0.11215241366E+02  0.11129248159E+02 -0.73804428957E+02  0.75622916746E+02  0.47000000000E+01 0. -1.
         -5    1    4    4    0  501  0.20869665344E+02 -0.51052011425E+01 -0.25358769018E+01  0.22138804890E+02  0.47000000000E+01 0. -1.
         12    1    5    5    0    0 -0.24343163282E+02 -0.69198686277E+01 -0.18332928456E+02  0.31250127139E+02  0.00000000000E+00 0. -1.
        -12    1    5    5    0    0  0.14688739304E+02  0.89582161128E+00 -0.10878838736E+03  0.10977920924E+03  0.00000000000E+00 0. -1.
<mgrwt>
<rscale>  0 0.12499815E+03</rscale>
<asrwt>0</asrwt>
<pdfrwt beam="1">  1       21 0.27176488E-02 0.12499815E+03</pdfrwt>
<pdfrwt beam="2">  1       21 0.34019439E-01 0.12499815E+03</pdfrwt>
<totfact> 0.60952687E+06</totfact>
</mgrwt>
</event>
<event>
 8    1  0.4458519E-002  0.1250613E+03  0.7818608E-02  0.1234974E+00
         21   -1    0    0  503  502  0.00000000000E+00  0.00000000000E+00  0.82106642874E+03  0.82106642874E+03  0.00000000000E+00 0.  1.
         21   -1    0    0  502  503 -0.00000000000E+00 -0.00000000000E+00 -0.47621976922E+01  0.47621976922E+01  0.00000000000E+00 0.  1.
    9000006    2    1    2    0    0  0.97487394532E+01 -0.13187527406E+02  0.45047494267E+03  0.45474898038E+03  0.60000103214E+02 0.  0.
    9000007    2    1    2    0    0 -0.97487394532E+01  0.13187527406E+02  0.36582928838E+03  0.37107964605E+03  0.60000722305E+02 0.  0.
          5    1    3    3  501    0 -0.13445519102E+02  0.65057620068E+01  0.33102348717E+03  0.33139364203E+03  0.47000000000E+01 0.  1.
         -5    1    3    3    0  501  0.23194258555E+02 -0.19693289413E+02  0.11945145550E+03  0.12335533835E+03  0.47000000000E+01 0.  1.
         12    1    4    4    0    0 -0.17470694065E+02  0.12363572783E+02  0.41832456520E+02  0.46989759539E+02  0.00000000000E+00 0.  1.
        -12    1    4    4    0    0  0.77219546118E+01  0.82395462355E+00  0.32399683186E+03  0.32408988651E+03  0.00000000000E+00 0.  1.
<mgrwt>
<rscale>  0 0.12506128E+03</rscale>
<asrwt>0</asrwt>
<pdfrwt beam="1">  1       21 0.12631780E+00 0.12506128E+03</pdfrwt>
<pdfrwt beam="2">  1       21 0.73264645E-03 0.12506128E+03</pdfrwt>
<totfact> 0.28481536E+06</totfact>
</mgrwt>
</event>
<event>
 9    1  0.4458519E-002  0.1249878E+03  0.7818608E-02  0.1235088E+00
         21   -1    0    0  503  502  0.00000000000E+00  0.00000000000E+00  0.16228767354E+02  0.16228767354E+02  0.00000000000E+00 0.  1.
         21   -1    0    0  502  503 -0.00000000000E+00 -0.00000000000E+00 -0.24065229360E+03  0.24065229360E+03  0.00000000000E+00 0.  1.
         25    2    1    2    0    0  0.00000000000E+00 -0.17763568394E-14 -0.22442352625E+03  0.25688106095E+03  0.12498784078E+03 0.  0.
    9000006    2    3    3    0    0  0.27302615466E+01 -0.13109508744E+02 -0.89118856315E+02  0.10826547984E+03  0.59999416879E+02 0.  0.
    9000007    2    3    3    0    0 -0.27302615466E+01  0.13109508744E+02 -0.13530466993E+03  0.14861558112E+03  0.59999364145E+02 0.  0.
          5    1    4    4  501    0 -0.26689086926E+02  0.10613259242E+01 -0.29110364426E+02  0.39786141942E+02  0.47000000000E+01 0. -1.
         -5    1    4    4    0  501  0.29419348472E+02 -0.14170834668E+02 -0.60008491889E+02  0.68479337895E+02  0.47000000000E+01 0. -1.
         12    1    5    5    0    0  0.14127667708E+02  0.19572836439E+02 -0.12602488977E+03  0.12831585936E+03  0.00000000000E+00 0. -1.
        -12    1    5    5    0    0 -0.16857929255E+02 -0.64633276952E+01 -0.92797801613E+01  0.20299721759E+02  0.00000000000E+00 0. -1.
<mgrwt>
<rscale>  0 0.12498784E+03</rscale>
<asrwt>0</asrwt>
<pdfrwt beam="1">  1       21 0.24967332E-02 0.12498784E+03</pdfrwt>
<pdfrwt beam="2">  1       21 0.37023433E-01 0.12498784E+03</pdfrwt>
<totfact> 0.59254478E+06</totfact>
</mgrwt>
</event>
<event>
 9    1  0.4458519E-002  0.1250407E+03  0.7818608E-02  0.1235006E+00
         21   -1    0    0  503  502  0.00000000000E+00  0.00000000000E+00  0.88847752090E+02  0.88847752090E+02  0.00000000000E+00 0.  1.
         21   -1    0    0  502  503 -0.00000000000E+00 -0.00000000000E+00 -0.43994327514E+02  0.43994327514E+02  0.00000000000E+00 0.  1.
         25    2    1    2    0    0  0.00000000000E+00  0.17763568394E-14  0.44853424576E+02  0.13284207960E+03  0.12504074703E+03 0.  0.
    9000006    2    3    3    0    0 -0.12601023567E+02 -0.40565629581E+01  0.10156179322E+02  0.62279169977E+02  0.60002546085E+02 0.  0.
    9000007    2    3    3    0    0  0.12601023567E+02  0.40565629581E+01  0.34697245254E+02  0.70562909627E+02  0.59999865740E+02 0.  0.
          5    1    4    4  501    0  0.15816196042E+02 -0.14917463089E+02 -0.11111020852E+02  0.24864182002E+02  0.47000000000E+01 0. -1.
         -5    1    4    4    0  501 -0.28417219609E+02  0.10860900131E+02  0.21267200175E+02  0.37414987975E+02  0.47000000000E+01 0. -1.
         12    1    5    5    0    0  0.53271459426E+01  0.23745941462E+02 -0.57387244812E+01  0.25003623307E+02  0.00000000000E+00 0. -1.
        -12    1    5    5    0    0  0.72738776243E+01 -0.19689378504E+02  0.40435969735E+02  0.45559286320E+02  0.00000000000E+00 0. -1.
<mgrwt>
<rscale>  0 0.12504075E+03</rscale>
<asrwt>0</asrwt>
<pdfrwt beam="1">  1       21 0.13668885E-01 0.12504075E+03</pdfrwt>
<pdfrwt beam="2">  1       21 0.67683581E-02 0.12504075E+03</pdfrwt>
<totfact> 0.72907682E+06</totfact>
</mgrwt>
</event>
<event>
 9    1  0.4458519E-002  0.1250045E+03  0.7818608E-02  0.1235062E+00
         21   -1    0    0  503  502  0.00000000000E+00  0.00000000000E+00  0.20700831627E+02  0.20700831627E+02  0.00000000000E+00 0.  1.
         21   -1    0    0  502  503 -0.00000000000E+00 -0.00000000000E+00 -0.18871375436E+03  0.18871375436E+03  0.00000000000E+00 0.  1.
         25    2    1    2    0    0  0.00000000000E+00  0.00000000000E+00 -0.16801292273E+03  0.20941458598E+03  0.12500450639E+03 0.  0.
    9000006    2    3    3    0    0  0.32987702369E+01 -0.17001290262E+02 -0.88379886759E+02  0.10821645392E+03  0.59998922993E+02 0.  0.
    9000007    2    3    3    0    0 -0.32987702369E+01  0.17001290262E+02 -0.79633035971E+02  0.10119813206E+03  0.59997631281E+02 0.  0.
          5    1    4    4  501    0  0.21511119683E+02 -0.16249567418E+02 -0.84733000547E+02  0.89042394919E+02  0.47000000000E+01 0.  1.
         -5    1    4    4    0  501 -0.18212349446E+02 -0.75172284404E+00 -0.36468862121E+01  0.19174059003E+02  0.47000000000E+01 0.  1.
         12    1    5    5    0    0  0.46288512262E+01  0.21701696472E+02 -0.86756775697E+02  0.89549584157E+02  0.00000000000E+00 0.  1.
        -12    1    5    5    0    0 -0.79276214631E+01 -0.47004062106E+01  0.71237397260E+01  0.11648547905E+02  0.00000000000E+00 0.  1.
<mgrwt>
<rscale>  0 0.12500451E+03</rscale>
<asrwt>0</asrwt>
<pdfrwt beam="1">  1       21 0.31847433E-02 0.12500451E+03</pdfrwt>
<pdfrwt beam="2">  1       21 0.29032886E-01 0.12500451E+03</pdfrwt>
<totfact> 0.63913894E+06</totfact>
</mgrwt>
</event>
<event>
 9    1  0.4458519E-002  0.1249943E+03  0.7818608E-02  0.1235078E+00
         21   -1    0    0  503  502  0.00000000000E+00  0.00000000000E+00  0.13137477256E+02  0.13137477256E+02  0.00000000000E+00 0.  1.
         21   -1    0    0  502  503 -0.00000000000E+00 -0.00000000000E+00 -0.29730904332E+03  0.29730904332E+03  0.00000000000E+00 0.  1.
         25    2    1    2    0    0  0.17763568394E-14  0.00000000000E+00 -0.28417156607E+03  0.31044652058E+03  0.12499425258E+03 0.  0.
    9000006    2    3    3    0    0  0.69059562568E+01 -0.47674347363E+01 -0.10398041157E+03  0.12034320329E+03  0.60001166004E+02 0.  0.
    9000007    2    3    3    0    0 -0.69059562568E+01  0.47674347363E+01 -0.18019115450E+03  0.19010331729E+03  0.59999986834E+02 0.  0.
          5    1    4    4  501    0 -0.20766025374E+02 -0.12192350945E+02 -0.76606954045E+02  0.80440018893E+02  0.47000000000E+01 0. -1.
         -5    1    4    4    0  501  0.27671981631E+02  0.74249162086E+01 -0.27373457524E+02  0.39903184396E+02  0.47000000000E+01 0. -1.
         12    1    5    5    0    0 -0.97623683299E+00  0.47912017553E+01 -0.18332920851E+03  0.18339440380E+03  0.00000000000E+00 0.  1.
        -12    1    5    5    0    0 -0.59297194238E+01 -0.23767018993E-01  0.31380540081E+01  0.67089134943E+01  0.00000000000E+00 0.  1.
<mgrwt>
<rscale>  0 0.12499425E+03</rscale>
<asrwt>0</asrwt>
<pdfrwt beam="1">  1       21 0.20211503E-02 0.12499425E+03</pdfrwt>
<pdfrwt beam="2">  1       21 0.45739853E-01 0.12499425E+03</pdfrwt>
<totfact> 0.54606928E+06</totfact>
</mgrwt>
</event>
<event>
 9    1  0.4458519E-002  0.1249954E+03  0.7818608E-02  0.1235076E+00
         21   -1    0    0  503  502  0.00000000000E+00  0.00000000000E+00  0.14114401645E+02  0.14114401645E+02  0.00000000000E+00 0.  1.
         21   -1    0    0  502  503 -0.00000000000E+00 -0.00000000000E+00 -0.27673610773E+03  0.27673610773E+03  0.00000000000E+00 0.  1.
         25    2    1    2    0    0  0.22204460493E-14  0.35527136788E-14 -0.26262170608E+03  0.29085050937E+03  0.12499543310E+03 0.  0.
    9000006    2    3    3    0    0  0.37888272973E+01  0.15563960436E+02 -0.14769345655E+03  0.16021729476E+03  0.59996936227E+02 0.  0.
    9000007    2    3    3    0    0 -0.37888272973E+01 -0.15563960436E+02 -0.11492824953E+03  0.13063321461E+03  0.59999517847E+02 0.  0.
          5    1    4    4  501    0 -0.30215937566E+01 -0.17629851266E+02 -0.98972073634E+02  0.10068516794E+03  0.47000000000E+01 0.  1.
         -5    1    4    4    0  501  0.68104210538E+01  0.33193811702E+02 -0.48721382913E+02  0.59532126816E+02  0.47000000000E+01 0.  1.
         12    1    5    5    0    0  0.27608395491E+02 -0.20246965560E+01 -0.57004140302E+02  0.63370299899E+02  0.00000000000E+00 0. -1.
        -12    1    5    5    0    0 -0.31397222788E+02 -0.13539263880E+02 -0.57924109231E+02  0.67262914711E+02  0.00000000000E+00 0. -1.
<mgrwt>
<rscale>  0 0.12499543E+03</rscale>
<asrwt>0</asrwt>
<pdfrwt beam="1">  1       21 0.21714463E-02 0.12499543E+03</pdfrwt>
<pdfrwt beam="2">  1       21 0.42574787E-01 0.12499543E+03</pdfrwt>
<totfact> 0.56231662E+06</totfact>
</mgrwt>
</event>
<event>
 9    1  0.4458519E-002  0.1250005E+03  0.7818608E-02  0.1235068E+00
         21   -1    0    0  503  502  0.00000000000E+00  0.00000000000E+00  0.10111798053E+03  0.10111798053E+03  0.00000000000E+00 0. -1.
         21   -1    0    0  502  503 -0.00000000000E+00 -0.00000000000E+00 -0.38630937415E+02  0.38630937415E+02  0.00000000000E+00 0. -1.
         25    2    1    2    0    0  0.35527136788E-14 -0.53290705182E-14  0.62487043116E+02  0.13974891795E+03  0.12500051804E+03 0.  0.
    9000006    2    3    3    0    0  0.42224688158E+01  0.14253017293E+02  0.20919846171E+02  0.65257822601E+02  0.59999714183E+02 0.  0.
    9000007    2    3    3    0    0 -0.42224688158E+01 -0.14253017293E+02  0.41567196945E+02  0.74491095345E+02  0.60000947317E+02 0.  0.
          5    1    4    4  501    0  0.17434520017E+02  0.33080227286E+02  0.82450447791E+01  0.38578941003E+02  0.47000000000E+01 0. -1.
         -5    1    4    4    0  501 -0.13212051201E+02 -0.18827209993E+02  0.12674801392E+02  0.26678881599E+02  0.47000000000E+01 0. -1.
         12    1    5    5    0    0  0.20964895702E+02 -0.24993623426E+02  0.13576766770E+02  0.35334638242E+02  0.00000000000E+00 0. -1.
        -12    1    5    5    0    0 -0.25187364518E+02  0.10740606133E+02  0.27990430175E+02  0.39156457103E+02  0.00000000000E+00 0. -1.
<mgrwt>
<rscale>  0 0.12500052E+03</rscale>
<asrwt>0</asrwt>
<pdfrwt beam="1">  1       21 0.15556612E-01 0.12500052E+03</pdfrwt>
<pdfrwt beam="2">  1       21 0.59432212E-02 0.12500052E+03</pdfrwt>
<totfact> 0.72071152E+06</totfact>
</mgrwt>
</event>
<event>
 9    1  0.4458519E-002  0.1249965E+03  0.7818608E-02  0.1235075E+00
         21   -1    0    0  503  502  0.00000000000E+00  0.00000000000E+00  0.10798541553E+03  0.10798541553E+03  0.00000000000E+00 0. -1.
         21   -1    0    0  502  503 -0.00000000000E+00 -0.00000000000E+00 -0.36171851624E+02  0.36171851624E+02  0.00000000000E+00 0. -1.
         25    2    1    2    0    0  0.00000000000E+00  0.00000000000E+00  0.71813563905E+02  0.14415726715E+03  0.12499651880E+03 0.  0.
    9000006    2    3    3    0    0 -0.16456627173E+02 -0.32251841906E+01  0.41659534964E+02  0.74944839985E+02  0.59999914966E+02 0.  0.
    9000007    2    3    3    0    0  0.16456627173E+02  0.32251841906E+01  0.30154028941E+02  0.69212427168E+02  0.59998935175E+02 0.  0.
          5    1    4    4  501    0  0.18299127202E+02 -0.28855697580E+01 -0.16860279219E+01  0.19186382132E+02  0.47000000000E+01 0.  1.
         -5    1    4    4    0  501 -0.34755754375E+02 -0.33961443258E+00  0.43345562886E+02  0.55758457852E+02  0.47000000000E+01 0.  1.
         12    1    5    5    0    0 -0.99290975651E+01  0.79049882384E+01  0.38983774714E+02  0.40997689063E+02  0.00000000000E+00 0.  1.
        -12    1    5    5    0    0  0.26385724739E+02 -0.46798040478E+01 -0.88297457736E+01  0.28214738105E+02  0.00000000000E+00 0.  1.
<mgrwt>
<rscale>  0 0.12499652E+03</rscale>
<asrwt>0</asrwt>
<pdfrwt beam="1">  1       21 0.16613141E-01 0.12499652E+03</pdfrwt>
<pdfrwt beam="2">  1       21 0.55649003E-02 0.12499652E+03</pdfrwt>
<totfact> 0.71507462E+06</totfact>
</mgrwt>
</event>
<event>
 9    1  0.4458519E-002  0.1249986E+03  0.7818608E-02  0.1235071E+00
         21   -1    0    0  503  502  0.00000000000E+00  0.00000000000E+00  0.50325345257E+02  0.50325345257E+02  0.00000000000E+00 0.  1.
         21   -1    0    0  502  503 -0.00000000000E+00 -0.00000000000E+00 -0.77618187735E+02  0.77618187735E+02  0.00000000000E+00 0.  1.
         25    2    1    2    0    0  0.35527136788E-14  0.00000000000E+00 -0.27292842478E+02  0.12794353299E+03  0.12499859353E+03 0.  0.
    9000006    2    3    3    0    0 -0.50791723613E+01  0.91810844117E+01 -0.27981778452E+02  0.67030982748E+02  0.60000686829E+02 0.  0.
    9000007    2    3    3    0    0  0.50791723613E+01 -0.91810844117E+01  0.68893597400E+00  0.60912550245E+02  0.59998115318E+02 0.  0.
          5    1    4    4  501    0  0.23147124068E+02 -0.34637462381E+01  0.16657672453E+01  0.23930141478E+02  0.47000000000E+01 0.  1.
         -5    1    4    4    0  501 -0.28226296430E+02  0.12644830650E+02 -0.29647545697E+02  0.43100841270E+02  0.47000000000E+01 0.  1.
         12    1    5    5    0    0  0.22701364674E+02 -0.15876857154E+02  0.19813504773E+02  0.34058795083E+02  0.00000000000E+00 0.  1.
        -12    1    5    5    0    0 -0.17622192312E+02  0.66957727419E+01 -0.19124568799E+02  0.26853755161E+02  0.00000000000E+00 0.  1.
<mgrwt>
<rscale>  0 0.12499859E+03</rscale>
<asrwt>0</asrwt>
<pdfrwt beam="1">  1       21 0.77423608E-02 0.12499859E+03</pdfrwt>
<pdfrwt beam="2">  1       21 0.11941260E-01 0.12499859E+03</pdfrwt>
<totfact> 0.73643833E+06</totfact>
</mgrwt>
</event>
<event>
 9    1  0.4458519E-002  0.1249708E+03  0.7818608E-02  0.1235115E+00
         21   -1    0    0  503  502  0.00000000000E+00  0.00000000000E+00  0.33468962456E+01  0.33468962456E+01  0.00000000000E+00 0. -1.
         21   -1    0    0  502  503 -0.00000000000E+00 -0.00000000000E+00 -0.11665806875E+04  0.11665806875E+04  0.00000000000E+00 0. -1.
         25    2    1    2    0    0  0.00000000000E+00  0.00000000000E+00 -0.11632337913E+04  0.11699275838E+04  0.12497078896E+03 0.  0.
    9000006    2    3    3    0    0 -0.33239766131E+01  0.56466469302E+01 -0.43024175533E+03  0.43445473932E+03  0.60000158664E+02 0.  0.
    9000007    2    3    3    0    0  0.33239766131E+01 -0.56466469302E+01 -0.73299203596E+03  0.73547284447E+03  0.60000389399E+02 0.  0.
          5    1    4    4  501    0 -0.24915127736E+02 -0.40824080859E+00 -0.91786776867E+02  0.95225168198E+02  0.47000000000E+01 0.  1.
         -5    1    4    4    0  501  0.21591151123E+02  0.60548877388E+01 -0.33845497847E+03  0.33922957112E+03  0.47000000000E+01 0.  1.
         12    1    5    5    0    0  0.16141445617E+02  0.47534305881E+01 -0.67413880532E+03  0.67434877489E+03  0.00000000000E+00 0.  1.
        -12    1    5    5    0    0 -0.12817469004E+02 -0.10400077518E+02 -0.58853230643E+02  0.61124069574E+02  0.00000000000E+00 0.  1.
<mgrwt>
<rscale>  0 0.12497079E+03</rscale>
<asrwt>0</asrwt>
<pdfrwt beam="1">  1       21 0.51490657E-03 0.12497079E+03</pdfrwt>
<pdfrwt beam="2">  1       21 0.17947414E+00 0.12497079E+03</pdfrwt>
<totfact> 0.19767451E+06</totfact>
</mgrwt>
</event>
<event>
 9    1  0.4458519E-002  0.1250006E+03  0.7818608E-02  0.1235068E+00
         21   -1    0    0  503  502  0.00000000000E+00  0.00000000000E+00  0.40587522060E+02  0.40587522060E+02  0.00000000000E+00 0.  1.
         21   -1    0    0  502  503 -0.00000000000E+00 -0.00000000000E+00 -0.96243505379E+02  0.96243505379E+02  0.00000000000E+00 0.  1.
         25    2    1    2    0    0  0.00000000000E+00 -0.17763568394E-14 -0.55655983318E+02  0.13683102744E+03  0.12500056636E+03 0.  0.
    9000006    2    3    3    0    0  0.84503907554E+01  0.28331703464E+01 -0.44317822538E+02  0.75123282362E+02  0.60000018335E+02 0.  0.
    9000007    2    3    3    0    0 -0.84503907554E+01 -0.28331703464E+01 -0.11338160780E+02  0.61707745077E+02  0.59998799609E+02 0.  0.
          5    1    4    4  501    0 -0.10402022231E+02 -0.23057244356E+02 -0.30567838501E+02  0.39953990219E+02  0.47000000000E+01 0.  1.
         -5    1    4    4    0  501  0.18852412986E+02  0.25890414702E+02 -0.13749984037E+02  0.35169292143E+02  0.47000000000E+01 0.  1.
         12    1    5    5    0    0 -0.29591422287E+02 -0.17906245878E+02 -0.46724581753E+01  0.34901544089E+02  0.00000000000E+00 0.  1.
        -12    1    5    5    0    0  0.21141031531E+02  0.15073075531E+02 -0.66657026048E+01  0.26806200988E+02  0.00000000000E+00 0.  1.
<mgrwt>
<rscale>  0 0.12500057E+03</rscale>
<asrwt>0</asrwt>
<pdfrwt beam="1">  1       21 0.62442342E-02 0.12500057E+03</pdfrwt>
<pdfrwt beam="2">  1       21 0.14806693E-01 0.12500057E+03</pdfrwt>
<totfact> 0.72453882E+06</totfact>
</mgrwt>
</event>
<event>
 9    1  0.4458519E-002  0.1249990E+03  0.7818608E-02  0.1235071E+00
         21   -1    0    0  503  502  0.00000000000E+00  0.00000000000E+00  0.12411828417E+03  0.12411828417E+03  0.00000000000E+00 0.  1.
         21   -1    0    0  502  503 -0.00000000000E+00 -0.00000000000E+00 -0.31471493470E+02  0.31471493470E+02  0.00000000000E+00 0.  1.
         25    2    1    2    0    0  0.17763568394E-14  0.00000000000E+00  0.92646790697E+02  0.15558977764E+03  0.12499900431E+03 0.  0.
    9000006    2    3    3    0    0 -0.47984904183E+01 -0.40682211809E+01  0.26006838497E+02  0.65698697720E+02  0.60003227410E+02 0.  0.
    9000007    2    3    3    0    0  0.47984904183E+01  0.40682211809E+01  0.66639952200E+02  0.89891079917E+02  0.59999559045E+02 0.  0.
          5    1    4    4  501    0  0.81209353904E+00 -0.31539194147E+02  0.13327258530E+02  0.34570017115E+02  0.47000000000E+01 0.  1.
         -5    1    4    4    0  501 -0.56105839573E+01  0.27470972967E+02  0.12679579968E+02  0.31128680605E+02  0.47000000000E+01 0.  1.
         12    1    5    5    0    0  0.22964594360E+02 -0.16730150484E+02  0.17063918034E+02  0.33142839769E+02  0.00000000000E+00 0.  1.
        -12    1    5    5    0    0 -0.18166103941E+02  0.20798371664E+02  0.49576034166E+02  0.56748240148E+02  0.00000000000E+00 0.  1.
<mgrwt>
<rscale>  0 0.12499900E+03</rscale>
<asrwt>0</asrwt>
<pdfrwt beam="1">  1       21 0.19095120E-01 0.12499900E+03</pdfrwt>
<pdfrwt beam="2">  1       21 0.48417683E-02 0.12499900E+03</pdfrwt>
<totfact> 0.70064206E+06</totfact>
</mgrwt>
</event>
<event>
 9    1  0.4458519E-002  0.1250012E+03  0.7818608E-02  0.1235067E+00
         21   -1    0    0  503  502  0.00000000000E+00  0.00000000000E+00  0.57179902318E+03  0.57179902318E+03  0.00000000000E+00 0. -1.
         21   -1    0    0  502  503 -0.00000000000E+00 -0.00000000000E+00 -0.68316348493E+01  0.68316348493E+01  0.00000000000E+00 0. -1.
         25    2    1    2    0    0  0.00000000000E+00  0.00000000000E+00  0.56496738833E+03  0.57863065803E+03  0.12500115413E+03 0.  0.
    9000006    2    3    3    0    0  0.15076193087E+02  0.87278277150E+01  0.27466852515E+03  0.28168463934E+03  0.59999756310E+02 0.  0.
    9000007    2    3    3    0    0 -0.15076193087E+02 -0.87278277150E+01  0.29029886318E+03  0.29694601869E+03  0.60000345640E+02 0.  0.
          5    1    4    4  501    0  0.10481928797E+01  0.66428702965E+01  0.26190780536E+03  0.26203628554E+03  0.47000000000E+01 0.  1.
         -5    1    4    4    0  501  0.14028000207E+02  0.20849574185E+01  0.12760719789E+02  0.19648353793E+02  0.47000000000E+01 0.  1.
         12    1    5    5    0    0 -0.29949094626E+02  0.15670366956E+02  0.14878004849E+03  0.15257133249E+03  0.00000000000E+00 0. -1.
        -12    1    5    5    0    0  0.14872901539E+02 -0.24398194671E+02  0.14151881469E+03  0.14437468620E+03  0.00000000000E+00 0. -1.
<mgrwt>
<rscale>  0 0.12500115E+03</rscale>
<asrwt>0</asrwt>
<pdfrwt beam="1">  1       21 0.87969042E-01 0.12500115E+03</pdfrwt>
<pdfrwt beam="2">  1       21 0.10510212E-02 0.12500115E+03</pdfrwt>
<totfact> 0.38076133E+06</totfact>
</mgrwt>
</event>
<event>
 9    1  0.4458519E-002  0.1250021E+03  0.7818608E-02  0.1235066E+00
         21   -1    0    0  503  502  0.00000000000E+00  0.00000000000E+00  0.36207015319E+02  0.36207015319E+02  0.00000000000E+00 0.  1.
         21   -1    0    0  502  503 -0.00000000000E+00 -0.00000000000E+00 -0.10789025378E+03  0.10789025378E+03  0.00000000000E+00 0.  1.
         25    2    1    2    0    0  0.17763568394E-14  0.17763568394E-14 -0.71683238463E+02  0.14409726910E+03  0.12500214512E+03 0.  0.
    9000006    2    3    3    0    0 -0.96169844624E+01 -0.14897001726E+01 -0.19068688756E+02  0.63704761125E+02  0.59999800852E+02 0.  0.
    9000007    2    3    3    0    0  0.96169844624E+01  0.14897001726E+01 -0.52614549707E+02  0.80392507976E+02  0.59999657507E+02 0.  0.
          5    1    4    4  501    0 -0.22290181236E+02 -0.52311456861E+01  0.14374638282E+02  0.27439702813E+02  0.47000000000E+01 0. -1.
         -5    1    4    4    0  501  0.12673196774E+02  0.37414455134E+01 -0.33443327038E+02  0.36265058312E+02  0.47000000000E+01 0. -1.
         12    1    5    5    0    0  0.33182882073E+01  0.26153453330E+02 -0.56332182256E+01  0.26958251154E+02  0.00000000000E+00 0. -1.
        -12    1    5    5    0    0  0.62986962550E+01 -0.24663753157E+02 -0.46981331481E+02  0.53434256822E+02  0.00000000000E+00 0. -1.
<mgrwt>
<rscale>  0 0.12500215E+03</rscale>
<asrwt>0</asrwt>
<pdfrwt beam="1">  1       21 0.55703102E-02 0.12500215E+03</pdfrwt>
<pdfrwt beam="2">  1       21 0.16598500E-01 0.12500215E+03</pdfrwt>
<totfact> 0.71504920E+06</totfact>
</mgrwt>
</event>
<event>
 9    1  0.4458519E-002  0.1249864E+03  0.7818608E-02  0.1235091E+00
         21   -1    0    0  503  502  0.00000000000E+00  0.00000000000E+00  0.48026006798E+01  0.48026006798E+01  0.00000000000E+00 0.  1.
         21   -1    0    0  502  503 -0.00000000000E+00 -0.00000000000E+00 -0.81318426152E+03  0.81318426152E+03  0.00000000000E+00 0.  1.
         25    2    1    2    0    0  0.00000000000E+00 -0.17763568394E-14 -0.80838166084E+03  0.81798686220E+03  0.12498638785E+03 0.  0.
    9000006    2    3    3    0    0 -0.10067529338E+02  0.13171334312E+02 -0.36806791072E+03  0.37329468944E+03  0.60000825606E+02 0.  0.
    9000007    2    3    3    0    0  0.10067529338E+02 -0.13171334312E+02 -0.44031375013E+03  0.44469217276E+03  0.60000756393E+02 0.  0.
          5    1    4    4  501    0 -0.16993307598E+02  0.34824394497E+02 -0.23192345144E+03  0.23518522123E+03  0.47000000000E+01 0. -1.
         -5    1    4    4    0  501  0.69257782593E+01 -0.21653060185E+02 -0.13614445927E+03  0.13810946822E+03  0.47000000000E+01 0. -1.
         12    1    5    5    0    0  0.32410714977E+02 -0.13134252935E+02 -0.34623545871E+03  0.34799706308E+03  0.00000000000E+00 0. -1.
        -12    1    5    5    0    0 -0.22343185639E+02 -0.37081376772E-01 -0.94078291417E+02  0.96695109677E+02  0.00000000000E+00 0. -1.
<mgrwt>
<rscale>  0 0.12498639E+03</rscale>
<asrwt>0</asrwt>
<pdfrwt beam="1">  1       21 0.73886173E-03 0.12498639E+03</pdfrwt>
<pdfrwt beam="2">  1       21 0.12510526E+00 0.12498639E+03</pdfrwt>
<totfact> 0.28785179E+06</totfact>
</mgrwt>
</event>
<event>
 9    1  0.4458519E-002  0.1250018E+03  0.7818608E-02  0.1235067E+00
         21   -1    0    0  503  502  0.00000000000E+00  0.00000000000E+00  0.29245827144E+03  0.29245827144E+03  0.00000000000E+00 0.  1.
         21   -1    0    0  502  503 -0.00000000000E+00 -0.00000000000E+00 -0.13356983727E+02  0.13356983727E+02  0.00000000000E+00 0.  1.
         25    2    1    2    0    0  0.35527136788E-14  0.00000000000E+00  0.27910128771E+03  0.30581525517E+03  0.12500176595E+03 0.  0.
    9000006    2    3    3    0    0  0.13116828145E+02 -0.93154666290E+01  0.12253605932E+03  0.13737973834E+03  0.59993979475E+02 0.  0.
    9000007    2    3    3    0    0 -0.13116828145E+02  0.93154666290E+01  0.15656522839E+03  0.16843551682E+03  0.59991861851E+02 0.  0.
          5    1    4    4  501    0  0.19750402893E+02 -0.18647575804E+02  0.12190937891E+03  0.12498718800E+03  0.47000000000E+01 0.  1.
         -5    1    4    4    0  501 -0.66335747475E+01  0.93321091755E+01  0.62668041131E+00  0.12392550340E+02  0.47000000000E+01 0.  1.
         12    1    5    5    0    0  0.10031280879E+01 -0.11010141853E+01  0.14952019814E+03  0.14952761668E+03  0.00000000000E+00 0. -1.
        -12    1    5    5    0    0 -0.14119956233E+02  0.10416480814E+02  0.70450302452E+01  0.18907900141E+02  0.00000000000E+00 0. -1.
<mgrwt>
<rscale>  0 0.12500177E+03</rscale>
<asrwt>0</asrwt>
<pdfrwt beam="1">  1       21 0.44993575E-01 0.12500177E+03</pdfrwt>
<pdfrwt beam="2">  1       21 0.20549208E-02 0.12500177E+03</pdfrwt>
<totfact> 0.54973903E+06</totfact>
</mgrwt>
</event>
<event>
 9    1  0.4458519E-002  0.1249994E+03  0.7818608E-02  0.1235070E+00
         21   -1    0    0  503  502  0.00000000000E+00  0.00000000000E+00  0.10842416778E+04  0.10842416778E+04  0.00000000000E+00 0.  1.
         21   -1    0    0  502  503 -0.00000000000E+00 -0.00000000000E+00 -0.36027111314E+01  0.36027111314E+01  0.00000000000E+00 0.  1.
         25    2    1    2    0    0  0.35527136788E-14  0.35527136788E-14  0.10806389667E+04  0.10878443889E+04  0.12499935299E+03 0.  0.
    9000006    2    3    3    0    0  0.56954000356E+01 -0.13986955420E+02  0.46338263880E+03  0.46749494613E+03  0.59999851769E+02 0.  0.
    9000007    2    3    3    0    0 -0.56954000356E+01  0.13986955420E+02  0.61725632787E+03  0.62034944280E+03  0.59999869890E+02 0.  0.
          5    1    4    4  501    0  0.28162322574E+02  0.54315165127E+01  0.29691320668E+03  0.29833229809E+03  0.47000000000E+01 0.  1.
         -5    1    4    4    0  501 -0.22466922538E+02 -0.19418471933E+02  0.16646943213E+03  0.16916264804E+03  0.47000000000E+01 0.  1.
         12    1    5    5    0    0  0.16579640915E+02 -0.24406058972E+01  0.57065760868E+02  0.59475558958E+02  0.00000000000E+00 0.  1.
        -12    1    5    5    0    0 -0.22275040951E+02  0.16427561317E+02  0.56019056700E+03  0.56087388385E+03  0.00000000000E+00 0.  1.
<mgrwt>
<rscale>  0 0.12499935E+03</rscale>
<asrwt>0</asrwt>
<pdfrwt beam="1">  1       21 0.16680615E+00 0.12499935E+03</pdfrwt>
<pdfrwt beam="2">  1       21 0.55426412E-03 0.12499935E+03</pdfrwt>
<totfact> 0.21524169E+06</totfact>
</mgrwt>
</event>
<event>
 9    1  0.4458519E-002  0.1249992E+03  0.7818608E-02  0.1235071E+00
         21   -1    0    0  503  502  0.00000000000E+00  0.00000000000E+00  0.81869800020E+02  0.81869800020E+02  0.00000000000E+00 0. -1.
         21   -1    0    0  502  503 -0.00000000000E+00 -0.00000000000E+00 -0.47712341132E+02  0.47712341132E+02  0.00000000000E+00 0. -1.
         25    2    1    2    0    0  0.35527136788E-14 -0.17763568394E-14  0.34157458888E+02  0.12958214115E+03  0.12499919723E+03 0.  0.
    9000006    2    3    3    0    0 -0.11356001827E+02  0.88727761557E+01  0.27370453257E+02  0.67503567727E+02  0.59999208412E+02 0.  0.
    9000007    2    3    3    0    0  0.11356001827E+02 -0.88727761557E+01  0.67870056308E+01  0.62078573426E+02  0.60000007491E+02 0.  0.
          5    1    4    4  501    0  0.45941148133E+01  0.40757875503E+01  0.43298154863E+02  0.43983384926E+02  0.47000000000E+01 0.  1.
         -5    1    4    4    0  501 -0.15950116641E+02  0.47969886053E+01 -0.15927701605E+02  0.23520182800E+02  0.47000000000E+01 0.  1.
         12    1    5    5    0    0  0.34436408637E+02 -0.15291435107E+02  0.26927656217E+01  0.37774928380E+02  0.00000000000E+00 0.  1.
        -12    1    5    5    0    0 -0.23080406810E+02  0.64186589514E+01  0.40942400091E+01  0.24303645045E+02  0.00000000000E+00 0.  1.
<mgrwt>
<rscale>  0 0.12499920E+03</rscale>
<asrwt>0</asrwt>
<pdfrwt beam="1">  1       21 0.12595354E-01 0.12499920E+03</pdfrwt>
<pdfrwt beam="2">  1       21 0.73403602E-02 0.12499920E+03</pdfrwt>
<totfact> 0.73422320E+06</totfact>
</mgrwt>
</event>
<event>
 9    1  0.4458519E-002  0.1250009E+03  0.7818608E-02  0.1235068E+00
         21   -1    0    0  503  502  0.00000000000E+00  0.00000000000E+00  0.33607726072E+03  0.33607726072E+03  0.00000000000E+00 0. -1.
         21   -1    0    0  502  503 -0.00000000000E+00 -0.00000000000E+00 -0.11623230886E+02  0.11623230886E+02  0.00000000000E+00 0. -1.
         25    2    1    2    0    0  0.35527136788E-14 -0.17763568394E-14  0.32445402984E+03  0.34770049161E+03  0.12500085755E+03 0.  0.
    9000006    2    3    3    0    0 -0.13768120604E+02 -0.85030030383E+01  0.14367975913E+03  0.15654304336E+03  0.59999908617E+02 0.  0.
    9000007    2    3    3    0    0  0.13768120604E+02  0.85030030383E+01  0.18077427070E+03  0.19115744825E+03  0.59999757226E+02 0.  0.
          5    1    4    4  501    0 -0.14611238806E+02 -0.30574345611E+02  0.52911469231E+02  0.63007876374E+02  0.47000000000E+01 0. -1.
         -5    1    4    4    0  501  0.84311820198E+00  0.22071342572E+02  0.90768289902E+02  0.93535166985E+02  0.47000000000E+01 0. -1.
         12    1    5    5    0    0  0.31024718903E+02 -0.75593172189E+01  0.14382951944E+03  0.14733162296E+03  0.00000000000E+00 0.  1.
        -12    1    5    5    0    0 -0.17256598298E+02  0.16062320257E+02  0.36944751260E+02  0.43825825292E+02  0.00000000000E+00 0.  1.
<mgrwt>
<rscale>  0 0.12500086E+03</rscale>
<asrwt>0</asrwt>
<pdfrwt beam="1">  1       21 0.51704187E-01 0.12500086E+03</pdfrwt>
<pdfrwt beam="2">  1       21 0.17881896E-02 0.12500086E+03</pdfrwt>
<totfact> 0.51707598E+06</totfact>
</mgrwt>
</event>
<event>
 9    1  0.4458519E-002  0.1249922E+03  0.7818608E-02  0.1235081E+00
         21   -1    0    0  503  502  0.00000000000E+00  0.00000000000E+00  0.82186465601E+01  0.82186465601E+01  0.00000000000E+00 0. -1.
         21   -1    0    0  502  503 -0.00000000000E+00 -0.00000000000E+00 -0.47523188279E+03  0.47523188279E+03  0.00000000000E+00 0. -1.
         25    2    1    2    0    0 -0.35527136788E-14  0.17763568394E-14 -0.46701323623E+03  0.48345052935E+03  0.12499220582E+03 0.  0.
    9000006    2    3    3    0    0 -0.16695864455E+02 -0.23672401732E+01 -0.21564547945E+03  0.22447142533E+03  0.60000768867E+02 0.  0.
    9000007    2    3    3    0    0  0.16695864455E+02  0.23672401732E+01 -0.25136775677E+03  0.25897910402E+03  0.60000595470E+02 0.  0.
          5    1    4    4  501    0  0.18686367997E+02 -0.11809693190E+02 -0.51761350900E+02  0.56479878268E+02  0.47000000000E+01 0. -1.
         -5    1    4    4    0  501 -0.35382232452E+02  0.94424530169E+01 -0.16388412855E+03  0.16799154706E+03  0.47000000000E+01 0. -1.
         12    1    5    5    0    0  0.11857091383E+02  0.24498222120E+02 -0.21050313935E+03  0.21225533016E+03  0.00000000000E+00 0.  1.
        -12    1    5    5    0    0  0.48387730715E+01 -0.22130981947E+02 -0.40864617421E+02  0.46723773860E+02  0.00000000000E+00 0.  1.
<mgrwt>
<rscale>  0 0.12499221E+03</rscale>
<asrwt>0</asrwt>
<pdfrwt beam="1">  1       21 0.12644071E-02 0.12499221E+03</pdfrwt>
<pdfrwt beam="2">  1       21 0.73112602E-01 0.12499221E+03</pdfrwt>
<totfact> 0.42964385E+06</totfact>
</mgrwt>
</event>
<event>
 9    1  0.4458519E-002  0.1250024E+03  0.7818608E-02  0.1235066E+00
         21   -1    0    0  503  502  0.00000000000E+00  0.00000000000E+00  0.51021161362E+02  0.51021161362E+02  0.00000000000E+00 0. -1.
         21   -1    0    0  502  503 -0.00000000000E+00 -0.00000000000E+00 -0.76564297896E+02  0.76564297896E+02  0.00000000000E+00 0. -1.
         25    2    1    2    0    0  0.00000000000E+00  0.35527136788E-14 -0.25543136534E+02  0.12758545926E+03  0.12500239034E+03 0.  0.
    9000006    2    3    3    0    0  0.63934078072E+01  0.22478984663E+01  0.37013506240E+01  0.60494897459E+02  0.60000032594E+02 0.  0.
    9000007    2    3    3    0    0 -0.63934078072E+01 -0.22478984663E+01 -0.29244487158E+02  0.67090561798E+02  0.59999789519E+02 0.  0.
          5    1    4    4  501    0  0.93092466439E+00  0.21972238875E+02 -0.19094084174E+02  0.29501185609E+02  0.47000000000E+01 0.  1.
         -5    1    4    4    0  501  0.54624831428E+01 -0.19724340408E+02  0.22795434798E+02  0.30993711850E+02  0.47000000000E+01 0.  1.
         12    1    5    5    0    0  0.13831009128E+02 -0.25231050559E+02 -0.20240866955E+02  0.35179474426E+02  0.00000000000E+00 0.  1.
        -12    1    5    5    0    0 -0.20224416935E+02  0.22983152093E+02 -0.90036202025E+01  0.31911087372E+02  0.00000000000E+00 0.  1.
<mgrwt>
<rscale>  0 0.12500239E+03</rscale>
<asrwt>0</asrwt>
<pdfrwt beam="1">  1       21 0.78494094E-02 0.12500239E+03</pdfrwt>
<pdfrwt beam="2">  1       21 0.11779123E-01 0.12500239E+03</pdfrwt>
<totfact> 0.73685140E+06</totfact>
</mgrwt>
</event>
<event>
 9    1  0.4458519E-002  0.1250023E+03  0.7818608E-02  0.1235066E+00
         21   -1    0    0  503  502  0.00000000000E+00  0.00000000000E+00  0.11716058381E+03  0.11716058381E+03  0.00000000000E+00 0.  1.
         21   -1    0    0  502  503 -0.00000000000E+00 -0.00000000000E+00 -0.33342214677E+02  0.33342214677E+02  0.00000000000E+00 0.  1.
         25    2    1    2    0    0 -0.35527136788E-14 -0.13322676296E-14  0.83818369137E+02  0.15050279849E+03  0.12500229337E+03 0.  0.
    9000006    2    3    3    0    0  0.84561751072E+01 -0.83914800754E+00  0.23480255706E+02  0.64988379990E+02  0.59999633823E+02 0.  0.
    9000007    2    3    3    0    0 -0.84561751072E+01  0.83914800754E+00  0.60338113431E+02  0.85514418501E+02  0.59998473084E+02 0.  0.
          5    1    4    4  501    0  0.31611575136E+02  0.10233984414E+02  0.74845611643E+01  0.34382186891E+02  0.47000000000E+01 0.  1.
         -5    1    4    4    0  501 -0.23155400029E+02 -0.11073132422E+02  0.15995694542E+02  0.30606193099E+02  0.47000000000E+01 0.  1.
         12    1    5    5    0    0 -0.33670618257E+02  0.35811426974E+01  0.25340848144E+02  0.42292950967E+02  0.00000000000E+00 0.  1.
        -12    1    5    5    0    0  0.25214443150E+02 -0.27419946898E+01  0.34997265287E+02  0.43221467534E+02  0.00000000000E+00 0.  1.
<mgrwt>
<rscale>  0 0.12500229E+03</rscale>
<asrwt>0</asrwt>
<pdfrwt beam="1">  1       21 0.18024705E-01 0.12500229E+03</pdfrwt>
<pdfrwt beam="2">  1       21 0.51295716E-02 0.12500229E+03</pdfrwt>
<totfact> 0.70691971E+06</totfact>
</mgrwt>
</event>
<event>
 9    1  0.4458519E-002  0.1249980E+03  0.7818608E-02  0.1235072E+00
         21   -1    0    0  503  502  0.00000000000E+00  0.00000000000E+00  0.26821355622E+02  0.26821355622E+02  0.00000000000E+00 0. -1.
         21   -1    0    0  502  503 -0.00000000000E+00 -0.00000000000E+00 -0.14563491063E+03  0.14563491063E+03  0.00000000000E+00 0. -1.
         25    2    1    2    0    0 -0.17763568394E-14  0.17763568394E-14 -0.11881355501E+03  0.17245626626E+03  0.12499801165E+03 0.  0.
    9000006    2    3    3    0    0  0.32799306835E+01 -0.15758089254E+02 -0.49945813604E+02  0.79709988644E+02  0.60000188923E+02 0.  0.
    9000007    2    3    3    0    0 -0.32799306835E+01  0.15758089254E+02 -0.68867741408E+02  0.92746277611E+02  0.60000257349E+02 0.  0.
          5    1    4    4  501    0 -0.97264784557E+01 -0.12936090356E+02 -0.60037947685E+02  0.62358575826E+02  0.47000000000E+01 0. -1.
         -5    1    4    4    0  501  0.13006409139E+02 -0.28219988982E+01  0.10092134081E+02  0.17351412818E+02  0.47000000000E+01 0. -1.
         12    1    5    5    0    0 -0.25317641790E+02  0.59482306784E+01 -0.79009057683E+01  0.27180668608E+02  0.00000000000E+00 0.  1.
        -12    1    5    5    0    0  0.22037711107E+02  0.98098585753E+01 -0.60966835639E+02  0.65565609003E+02  0.00000000000E+00 0.  1.
<mgrwt>
<rscale>  0 0.12499801E+03</rscale>
<asrwt>0</asrwt>
<pdfrwt beam="1">  1       21 0.41263623E-02 0.12499801E+03</pdfrwt>
<pdfrwt beam="2">  1       21 0.22405371E-01 0.12499801E+03</pdfrwt>
<totfact> 0.68031078E+06</totfact>
</mgrwt>
</event>
<event>
 9    1  0.4458519E-002  0.1249978E+03  0.7818608E-02  0.1235073E+00
         21   -1    0    0  503  502  0.00000000000E+00  0.00000000000E+00  0.18690422018E+01  0.18690422018E+01  0.00000000000E+00 0. -1.
         21   -1    0    0  502  503 -0.00000000000E+00 -0.00000000000E+00 -0.20898997854E+04  0.20898997854E+04  0.00000000000E+00 0. -1.
         25    2    1    2    0    0 -0.35527136788E-14  0.17763568394E-14 -0.20880307432E+04  0.20917688276E+04  0.12499777432E+03 0.  0.
    9000006    2    3    3    0    0  0.15009539484E+02 -0.85126729729E+01 -0.10925579410E+04  0.10943402546E+04  0.59999887340E+02 0.  0.
    9000007    2    3    3    0    0 -0.15009539484E+02  0.85126729729E+01 -0.99547280216E+03  0.99742857298E+03  0.59999220680E+02 0.  0.
          5    1    4    4  501    0  0.30012635865E+02  0.72674075564E+01 -0.89242498138E+03  0.89297145023E+03  0.47000000000E+01 0. -1.
         -5    1    4    4    0  501 -0.15003096381E+02 -0.15780080529E+02 -0.20013295965E+03  0.20136880438E+03  0.47000000000E+01 0. -1.
         12    1    5    5    0    0 -0.12772130208E+02  0.23010931862E+02 -0.92828054298E+03  0.92865353969E+03  0.00000000000E+00 0.  1.
        -12    1    5    5    0    0 -0.22374092768E+01 -0.14498258889E+02 -0.67192259174E+02  0.68775033289E+02  0.00000000000E+00 0.  1.
<mgrwt>
<rscale>  0 0.12499777E+03</rscale>
<asrwt>0</asrwt>
<pdfrwt beam="1">  1       21 0.28754543E-03 0.12499777E+03</pdfrwt>
<pdfrwt beam="2">  1       21 0.32152251E+00 0.12499777E+03</pdfrwt>
<totfact> 0.70878864E+05</totfact>
</mgrwt>
</event>
<event>
 9    1  0.4458519E-002  0.1250002E+03  0.7818608E-02  0.1235069E+00
         21   -1    0    0  503  502  0.00000000000E+00  0.00000000000E+00  0.46992010111E+01  0.46992010111E+01  0.00000000000E+00 0.  1.
         21   -1    0    0  502  503 -0.00000000000E+00 -0.00000000000E+00 -0.83126082424E+03  0.83126082424E+03  0.00000000000E+00 0.  1.
         25    2    1    2    0    0  0.35527136788E-14  0.00000000000E+00 -0.82656162322E+03  0.83596002525E+03  0.12500018729E+03 0.  0.
    9000006    2    3    3    0    0 -0.16642698455E+02 -0.86003062851E+00 -0.44895087714E+03  0.45324896525E+03  0.60000127936E+02 0.  0.
    9000007    2    3    3    0    0  0.16642698455E+02  0.86003062851E+00 -0.37761074609E+03  0.38271106000E+03  0.60001340149E+02 0.  0.
          5    1    4    4  501    0 -0.21901359869E+02 -0.95147960134E+01 -0.43352059987E+03  0.43420317988E+03  0.47000000000E+01 0. -1.
         -5    1    4    4    0  501  0.52586614143E+01  0.86547653848E+01 -0.15430277269E+02  0.19045785369E+02  0.47000000000E+01 0. -1.
         12    1    5    5    0    0 -0.16847354389E+02  0.15472771736E+02 -0.20519494766E+03  0.20646599372E+03  0.00000000000E+00 0. -1.
        -12    1    5    5    0    0  0.33490052844E+02 -0.14612741107E+02 -0.17241579843E+03  0.17624506628E+03  0.00000000000E+00 0. -1.
<mgrwt>
<rscale>  0 0.12500019E+03</rscale>
<asrwt>0</asrwt>
<pdfrwt beam="1">  1       21 0.72295522E-03 0.12500019E+03</pdfrwt>
<pdfrwt beam="2">  1       21 0.12788606E+00 0.12500019E+03</pdfrwt>
<totfact> 0.28205434E+06</totfact>
</mgrwt>
</event>
<event>
 9    1  0.4458519E-002  0.1249901E+03  0.7818608E-02  0.1235085E+00
         21   -1    0    0  503  502  0.00000000000E+00  0.00000000000E+00  0.68567916568E+01  0.68567916568E+01  0.00000000000E+00 0. -1.
         21   -1    0    0  502  503 -0.00000000000E+00 -0.00000000000E+00 -0.56960042222E+03  0.56960042222E+03  0.00000000000E+00 0. -1.
         25    2    1    2    0    0  0.35527136788E-14  0.00000000000E+00 -0.56274363057E+03  0.57645721388E+03  0.12499010237E+03 0.  0.
    9000006    2    3    3    0    0  0.14003840393E+02  0.21815908698E+01 -0.32857208316E+03  0.33430590165E+03  0.59999626355E+02 0.  0.
    9000007    2    3    3    0    0 -0.14003840393E+02 -0.21815908698E+01 -0.23417154741E+03  0.24215131223E+03  0.60000645952E+02 0.  0.
          5    1    4    4  501    0 -0.97492101901E+01  0.13984142905E+02 -0.32400372984E+02  0.36911753163E+02  0.47000000000E+01 0. -1.
         -5    1    4    4    0  501  0.23753050584E+02 -0.11802552035E+02 -0.29617171017E+03  0.29739414848E+03  0.47000000000E+01 0. -1.
         12    1    5    5    0    0 -0.60463652978E+01  0.13250826560E+01  0.14597117053E+01  0.63596490173E+01  0.00000000000E+00 0. -1.
        -12    1    5    5    0    0 -0.79574750956E+01 -0.35066735258E+01 -0.23563125912E+03  0.23579166322E+03  0.00000000000E+00 0. -1.
<mgrwt>
<rscale>  0 0.12499010E+03</rscale>
<asrwt>0</asrwt>
<pdfrwt beam="1">  1       21 0.10548913E-02 0.12499010E+03</pdfrwt>
<pdfrwt beam="2">  1       21 0.87630813E-01 0.12499010E+03</pdfrwt>
<totfact> 0.38188835E+06</totfact>
</mgrwt>
</event>
<event>
 9    1  0.4458519E-002  0.1249973E+03  0.7818608E-02  0.1235074E+00
         21   -1    0    0  503  502  0.00000000000E+00  0.00000000000E+00  0.39118307300E+03  0.39118307300E+03  0.00000000000E+00 0.  1.
         21   -1    0    0  502  503 -0.00000000000E+00 -0.00000000000E+00 -0.99852986407E+01  0.99852986407E+01  0.00000000000E+00 0.  1.
         25    2    1    2    0    0  0.00000000000E+00  0.00000000000E+00  0.38119777436E+03  0.40116837164E+03  0.12499727688E+03 0.  0.
    9000006    2    3    3    0    0  0.16934366503E+02 -0.44170780576E+01  0.18921057404E+03  0.19926596156E+03  0.59999989680E+02 0.  0.
    9000007    2    3    3    0    0 -0.16934366503E+02  0.44170780576E+01  0.19198720032E+03  0.20190241008E+03  0.59993455988E+02 0.  0.
          5    1    4    4  501    0  0.28608804959E+02 -0.21819257798E+02  0.15229433075E+03  0.15655732788E+03  0.47000000000E+01 0.  1.
         -5    1    4    4    0  501 -0.11674438456E+02  0.17402179740E+02  0.36916243285E+02  0.42708633685E+02  0.47000000000E+01 0.  1.
         12    1    5    5    0    0 -0.26934958293E+02 -0.20142601697E+02  0.79310701973E+02  0.86147570070E+02  0.00000000000E+00 0.  1.
        -12    1    5    5    0    0  0.10000591790E+02  0.24559679755E+02  0.11267649835E+03  0.11575484001E+03  0.00000000000E+00 0.  1.
<mgrwt>
<rscale>  0 0.12499728E+03</rscale>
<asrwt>0</asrwt>
<pdfrwt beam="1">  1       21 0.60181999E-01 0.12499728E+03</pdfrwt>
<pdfrwt beam="2">  1       21 0.15362001E-02 0.12499728E+03</pdfrwt>
<totfact> 0.47967220E+06</totfact>
</mgrwt>
</event>
<event>
 9    1  0.4458519E-002  0.1250033E+03  0.7818608E-02  0.1235064E+00
         21   -1    0    0  503  502  0.00000000000E+00  0.00000000000E+00  0.30868329258E+01  0.30868329258E+01  0.00000000000E+00 0.  1.
         21   -1    0    0  502  503 -0.00000000000E+00 -0.00000000000E+00 -0.12655232694E+04  0.12655232694E+04  0.00000000000E+00 0.  1.
         25    2    1    2    0    0  0.35527136788E-14  0.00000000000E+00 -0.12624364365E+04  0.12686101023E+04  0.12500334230E+03 0.  0.
    9000006    2    3    3    0    0 -0.16330518564E+02 -0.60589365978E+00 -0.56749164104E+03  0.57088864271E+03  0.60000223200E+02 0.  0.
    9000007    2    3    3    0    0  0.16330518564E+02  0.60589365978E+00 -0.69494479542E+03  0.69772145959E+03  0.59999279665E+02 0.  0.
          5    1    4    4  501    0  0.18875216311E+02  0.62843047993E+01 -0.33253362460E+03  0.33316132394E+03  0.47000000000E+01 0.  1.
         -5    1    4    4    0  501 -0.35205734875E+02 -0.68901984591E+01 -0.23495801644E+03  0.23772731878E+03  0.47000000000E+01 0.  1.
         12    1    5    5    0    0  0.13847472304E+02  0.11771995996E+02 -0.60440784495E+02  0.63114347096E+02  0.00000000000E+00 0.  1.
        -12    1    5    5    0    0  0.24830462591E+01 -0.11166102336E+02 -0.63450401092E+03  0.63460711250E+03  0.00000000000E+00 0.  1.
<mgrwt>
<rscale>  0 0.12500334E+03</rscale>
<asrwt>0</asrwt>
<pdfrwt beam="1">  1       21 0.47489790E-03 0.12500334E+03</pdfrwt>
<pdfrwt beam="2">  1       21 0.19469567E+00 0.12500334E+03</pdfrwt>
<totfact> 0.17824087E+06</totfact>
</mgrwt>
</event>
<event>
 9    1  0.4458519E-002  0.1249988E+03  0.7818608E-02  0.1235071E+00
         21   -1    0    0  503  502  0.00000000000E+00  0.00000000000E+00  0.37026996818E+02  0.37026996818E+02  0.00000000000E+00 0.  1.
         21   -1    0    0  502  503 -0.00000000000E+00 -0.00000000000E+00 -0.10549526934E+03  0.10549526934E+03  0.00000000000E+00 0.  1.
         25    2    1    2    0    0  0.35527136788E-14 -0.17763568394E-14 -0.68468272520E+02  0.14252226616E+03  0.12499876803E+03 0.  0.
    9000006    2    3    3    0    0  0.31612624626E+01  0.80177068981E+01 -0.51572677841E+02  0.79596159994E+02  0.60012751827E+02 0.  0.
    9000007    2    3    3    0    0 -0.31612624626E+01 -0.80177068981E+01 -0.16895594679E+02  0.62926106161E+02  0.59999637605E+02 0.  0.
          5    1    4    4  501    0  0.29657964793E+02  0.12800425603E+02 -0.33827442424E+02  0.47008846319E+02  0.47000000000E+01 0. -1.
         -5    1    4    4    0  501 -0.26496702330E+02 -0.47827187049E+01 -0.17745235417E+02  0.32587313675E+02  0.47000000000E+01 0. -1.
         12    1    5    5    0    0  0.21806088039E+02  0.12550273773E+02 -0.17371676248E+02  0.30574335365E+02  0.00000000000E+00 0. -1.
        -12    1    5    5    0    0 -0.24967350502E+02 -0.20567980671E+02  0.47608156951E+00  0.32351770796E+02  0.00000000000E+00 0. -1.
<mgrwt>
<rscale>  0 0.12499877E+03</rscale>
<asrwt>0</asrwt>
<pdfrwt beam="1">  1       21 0.56964612E-02 0.12499877E+03</pdfrwt>
<pdfrwt beam="2">  1       21 0.16230041E-01 0.12499877E+03</pdfrwt>
<totfact> 0.71713969E+06</totfact>
</mgrwt>
</event>
<event>
 9    1  0.4458519E-002  0.1250020E+03  0.7818608E-02  0.1235066E+00
         21   -1    0    0  503  502  0.00000000000E+00  0.00000000000E+00  0.12574633780E+02  0.12574633780E+02  0.00000000000E+00 0. -1.
         21   -1    0    0  502  503 -0.00000000000E+00 -0.00000000000E+00 -0.31065499746E+03  0.31065499746E+03  0.00000000000E+00 0. -1.
         25    2    1    2    0    0  0.00000000000E+00  0.00000000000E+00 -0.29808036368E+03  0.32322963124E+03  0.12500196519E+03 0.  0.
    9000006    2    3    3    0    0 -0.70279920152E+01  0.94900428439E+01 -0.11564416695E+03  0.13081674295E+03  0.59999944183E+02 0.  0.
    9000007    2    3    3    0    0  0.70279920152E+01 -0.94900428439E+01 -0.18243619674E+03  0.19241288829E+03  0.60002500926E+02 0.  0.
          5    1    4    4  501    0  0.12545972248E+02 -0.20566233142E+02 -0.39290586447E+02  0.46327222544E+02  0.47000000000E+01 0.  1.
         -5    1    4    4    0  501 -0.19573964263E+02  0.30056275986E+02 -0.76353580498E+02  0.84489520403E+02  0.47000000000E+01 0.  1.
         12    1    5    5    0    0  0.15077484287E+02 -0.28872788537E+02 -0.15194255065E+03  0.15539468186E+03  0.00000000000E+00 0. -1.
        -12    1    5    5    0    0 -0.80494922715E+01  0.19382745693E+02 -0.30493646082E+02  0.37018206437E+02  0.00000000000E+00 0. -1.
<mgrwt>
<rscale>  0 0.12500197E+03</rscale>
<asrwt>0</asrwt>
<pdfrwt beam="1">  1       21 0.19345591E-02 0.12500197E+03</pdfrwt>
<pdfrwt beam="2">  1       21 0.47793076E-01 0.12500197E+03</pdfrwt>
<totfact> 0.53575758E+06</totfact>
</mgrwt>
</event>
<event>
 9    1  0.4458519E-002  0.1250037E+03  0.7818608E-02  0.1235063E+00
         21   -1    0    0  503  502  0.00000000000E+00  0.00000000000E+00  0.82053895122E+02  0.82053895122E+02  0.00000000000E+00 0. -1.
         21   -1    0    0  502  503 -0.00000000000E+00 -0.00000000000E+00 -0.47608758189E+02  0.47608758189E+02  0.00000000000E+00 0. -1.
         25    2    1    2    0    0 -0.17763568394E-14  0.00000000000E+00  0.34445136933E+02  0.12966265331E+03  0.12500374477E+03 0.  0.
    9000006    2    3    3    0    0  0.29828555757E+01  0.68689659503E+00  0.35101497052E+02  0.69580911889E+02  0.60000157915E+02 0.  0.
    9000007    2    3    3    0    0 -0.29828555757E+01 -0.68689659503E+00 -0.65636011861E+00  0.60081741422E+02  0.60000129911E+02 0.  0.
          5    1    4    4  501    0  0.13180030704E+02  0.26090546374E+02  0.28365209836E+02  0.41001279839E+02  0.47000000000E+01 0. -1.
         -5    1    4    4    0  501 -0.10197175129E+02 -0.25403649778E+02  0.67362872162E+01  0.28579632050E+02  0.47000000000E+01 0. -1.
         12    1    5    5    0    0  0.17059437890E+02  0.22600330084E+02 -0.58701013618E+01  0.28918115966E+02  0.00000000000E+00 0. -1.
        -12    1    5    5    0    0 -0.20042293466E+02 -0.23287226679E+02  0.52137412431E+01  0.31163625455E+02  0.00000000000E+00 0. -1.
<mgrwt>
<rscale>  0 0.12500374E+03</rscale>
<asrwt>0</asrwt>
<pdfrwt beam="1">  1       21 0.12623676E-01 0.12500374E+03</pdfrwt>
<pdfrwt beam="2">  1       21 0.73244243E-02 0.12500374E+03</pdfrwt>
<totfact> 0.73403018E+06</totfact>
</mgrwt>
</event>
<event>
 9    1  0.4458519E-002  0.1249831E+03  0.7818608E-02  0.1235096E+00
         21   -1    0    0  503  502  0.00000000000E+00  0.00000000000E+00  0.11797092609E+02  0.11797092609E+02  0.00000000000E+00 0. -1.
         21   -1    0    0  502  503 -0.00000000000E+00 -0.00000000000E+00 -0.33102995415E+03  0.33102995415E+03  0.00000000000E+00 0. -1.
         25    2    1    2    0    0  0.00000000000E+00  0.17763568394E-14 -0.31923286154E+03  0.34282704676E+03  0.12498305526E+03 0.  0.
    9000006    2    3    3    0    0 -0.15051779739E+02  0.88306201513E+01 -0.15748365065E+03  0.16942760623E+03  0.60000646727E+02 0.  0.
    9000007    2    3    3    0    0  0.15051779739E+02 -0.88306201513E+01 -0.16174921090E+03  0.17339944053E+03  0.60000190202E+02 0.  0.
          5    1    4    4  501    0  0.85153129225E+01  0.15798170325E+02 -0.13345135326E+03  0.13473472613E+03  0.47000000000E+01 0. -1.
         -5    1    4    4    0  501 -0.23567092661E+02 -0.69675501740E+01 -0.24032297390E+02  0.34692880102E+02  0.47000000000E+01 0. -1.
         12    1    5    5    0    0  0.20556574842E+02 -0.22705640359E+02 -0.38252153718E+02  0.49003531887E+02  0.00000000000E+00 0. -1.
        -12    1    5    5    0    0 -0.55047951027E+01  0.13875020208E+02 -0.12349705718E+03  0.12439590864E+03  0.00000000000E+00 0. -1.
<mgrwt>
<rscale>  0 0.12498306E+03</rscale>
<asrwt>0</asrwt>
<pdfrwt beam="1">  1       21 0.18149372E-02 0.12498306E+03</pdfrwt>
<pdfrwt beam="2">  1       21 0.50927690E-01 0.12498306E+03</pdfrwt>
<totfact> 0.52094691E+06</totfact>
</mgrwt>
</event>
<event>
 9    1  0.4458519E-002  0.1249980E+03  0.7818608E-02  0.1235072E+00
         21   -1    0    0  503  502  0.00000000000E+00  0.00000000000E+00  0.20708919099E+02  0.20708919099E+02  0.00000000000E+00 0.  1.
         21   -1    0    0  502  503 -0.00000000000E+00 -0.00000000000E+00 -0.18862036847E+03  0.18862036847E+03  0.00000000000E+00 0.  1.
         25    2    1    2    0    0  0.00000000000E+00 -0.35527136788E-14 -0.16791144937E+03  0.20932928757E+03  0.12499798320E+03 0.  0.
    9000006    2    3    3    0    0  0.15152729579E+02 -0.82312421540E+01 -0.88902497920E+02  0.10863263073E+03  0.60000298013E+02 0.  0.
    9000007    2    3    3    0    0 -0.15152729579E+02  0.82312421540E+01 -0.79008951447E+02  0.10069665684E+03  0.60000364401E+02 0.  0.
          5    1    4    4  501    0  0.32690073381E+02 -0.18873935342E+02 -0.39024895852E+02  0.54496778155E+02  0.47000000000E+01 0. -1.
         -5    1    4    4    0  501 -0.17537343803E+02  0.10642693188E+02 -0.49877602067E+02  0.54135852574E+02  0.47000000000E+01 0. -1.
         12    1    5    5    0    0  0.17551290263E+02  0.85824938476E+01 -0.55882477263E+01  0.20320814531E+02  0.00000000000E+00 0. -1.
        -12    1    5    5    0    0 -0.32704019842E+02 -0.35125169361E+00 -0.73420703721E+02  0.80375842306E+02  0.00000000000E+00 0. -1.
<mgrwt>
<rscale>  0 0.12499798E+03</rscale>
<asrwt>0</asrwt>
<pdfrwt beam="1">  1       21 0.31859877E-02 0.12499798E+03</pdfrwt>
<pdfrwt beam="2">  1       21 0.29018517E-01 0.12499798E+03</pdfrwt>
<totfact> 0.63933433E+06</totfact>
</mgrwt>
</event>
<event>
 9    1  0.4458519E-002  0.1249978E+03  0.7818608E-02  0.1235073E+00
         21   -1    0    0  503  502  0.00000000000E+00  0.00000000000E+00  0.51947153444E+02  0.51947153444E+02  0.00000000000E+00 0.  1.
         21   -1    0    0  502  503 -0.00000000000E+00 -0.00000000000E+00 -0.75193988835E+02  0.75193988835E+02  0.00000000000E+00 0.  1.
         25    2    1    2    0    0 -0.35527136788E-14 -0.17763568394E-14 -0.23246835391E+02  0.12714114228E+03  0.12499781880E+03 0.  0.
    9000006    2    3    3    0    0 -0.14205690298E+02 -0.85290934134E+01 -0.59086555386E+01  0.62525634989E+02  0.59999964576E+02 0.  0.
    9000007    2    3    3    0    0  0.14205690298E+02  0.85290934134E+01 -0.17338179853E+02  0.64615507291E+02  0.60000035255E+02 0.  0.
          5    1    4    4  501    0 -0.24975225720E+02 -0.28227767150E+02 -0.98822669147E+01  0.39246884430E+02  0.47000000000E+01 0. -1.
         -5    1    4    4    0  501  0.10769535423E+02  0.19698673737E+02  0.39736113760E+01  0.23278750559E+02  0.47000000000E+01 0. -1.
         12    1    5    5    0    0  0.46541277246E+00 -0.16123729217E+01 -0.37871432574E+02  0.37908597451E+02  0.00000000000E+00 0. -1.
        -12    1    5    5    0    0  0.13740277525E+02  0.10141466335E+02  0.20533252721E+02  0.26706909840E+02  0.00000000000E+00 0. -1.
<mgrwt>
<rscale>  0 0.12499782E+03</rscale>
<asrwt>0</asrwt>
<pdfrwt beam="1">  1       21 0.79918697E-02 0.12499782E+03</pdfrwt>
<pdfrwt beam="2">  1       21 0.11568306E-01 0.12499782E+03</pdfrwt>
<totfact> 0.73754041E+06</totfact>
</mgrwt>
</event>
<event>
 9    1  0.4458519E-002  0.1249816E+03  0.7818608E-02  0.1235098E+00
         21   -1    0    0  503  502  0.00000000000E+00  0.00000000000E+00  0.49882836215E+02  0.49882836215E+02  0.00000000000E+00 0.  1.
         21   -1    0    0  502  503 -0.00000000000E+00 -0.00000000000E+00 -0.78285472512E+02  0.78285472512E+02  0.00000000000E+00 0.  1.
         25    2    1    2    0    0  0.00000000000E+00  0.17763568394E-14 -0.28402636297E+02  0.12816830873E+03  0.12498162110E+03 0.  0.
    9000006    2    3    3    0    0  0.81812871747E+01  0.10145601579E+02 -0.22724792302E+01  0.61441047783E+02  0.59999762496E+02 0.  0.
    9000007    2    3    3    0    0 -0.81812871747E+01 -0.10145601579E+02 -0.26130157066E+02  0.66727260944E+02  0.59998962937E+02 0.  0.
          5    1    4    4  501    0  0.17361806639E+02  0.18410780833E+02  0.21963157935E+02  0.33835772300E+02  0.47000000000E+01 0. -1.
         -5    1    4    4    0  501 -0.91805194638E+01 -0.82651792547E+01 -0.24235637165E+02  0.27605275483E+02  0.47000000000E+01 0. -1.
         12    1    5    5    0    0  0.63927579206E+01  0.15354098779E+02  0.10581513214E+02  0.19712537255E+02  0.00000000000E+00 0. -1.
        -12    1    5    5    0    0 -0.14574045095E+02 -0.25499700358E+02 -0.36711670280E+02  0.47014723689E+02  0.00000000000E+00 0. -1.
<mgrwt>
<rscale>  0 0.12498162E+03</rscale>
<asrwt>0</asrwt>
<pdfrwt beam="1">  1       21 0.76742825E-02 0.12498162E+03</pdfrwt>
<pdfrwt beam="2">  1       21 0.12043919E-01 0.12498162E+03</pdfrwt>
<totfact> 0.73645385E+06</totfact>
</mgrwt>
</event>
<event>
 9    1  0.4458519E-002  0.1250009E+03  0.7818608E-02  0.1235068E+00
         21   -1    0    0  503  502  0.00000000000E+00  0.00000000000E+00  0.37545264424E+02  0.37545264424E+02  0.00000000000E+00 0.  1.
         21   -1    0    0  502  503 -0.00000000000E+00 -0.00000000000E+00 -0.10404258965E+03  0.10404258965E+03  0.00000000000E+00 0.  1.
         25    2    1    2    0    0  0.17763568394E-14 -0.44408920985E-14 -0.66497325230E+02  0.14158785408E+03  0.12500090464E+03 0.  0.
    9000006    2    3    3    0    0  0.14641644359E+02  0.68741829117E+01 -0.25676589536E+02  0.67238065855E+02  0.60000317578E+02 0.  0.
    9000007    2    3    3    0    0 -0.14641644359E+02 -0.68741829117E+01 -0.40820735694E+02  0.74349788223E+02  0.59999386713E+02 0.  0.
          5    1    4    4  501    0  0.12299400421E+01  0.32370361451E+02 -0.16390028775E+02  0.36607049816E+02  0.47000000000E+01 0.  1.
         -5    1    4    4    0  501  0.13411704317E+02 -0.25496178540E+02 -0.92865607605E+01  0.30631016039E+02  0.47000000000E+01 0.  1.
         12    1    5    5    0    0  0.93234824865E+01 -0.47617868530E+01  0.12229974121E+02  0.16098888369E+02  0.00000000000E+00 0.  1.
        -12    1    5    5    0    0 -0.23965126846E+02 -0.21123960587E+01 -0.53050709816E+02  0.58250899854E+02  0.00000000000E+00 0.  1.
<mgrwt>
<rscale>  0 0.12500090E+03</rscale>
<asrwt>0</asrwt>
<pdfrwt beam="1">  1       21 0.57761946E-02 0.12500090E+03</pdfrwt>
<pdfrwt beam="2">  1       21 0.16006552E-01 0.12500090E+03</pdfrwt>
<totfact> 0.71831034E+06</totfact>
</mgrwt>
</event>
<event>
 9    1  0.4458519E-002  0.1249937E+03  0.7818608E-02  0.1235079E+00
         21   -1    0    0  503  502  0.00000000000E+00  0.00000000000E+00  0.32295623953E+02  0.32295623953E+02  0.00000000000E+00 0.  1.
         21   -1    0    0  502  503 -0.00000000000E+00 -0.00000000000E+00 -0.12094064820E+03  0.12094064820E+03  0.00000000000E+00 0.  1.
         25    2    1    2    0    0 -0.17763568394E-14  0.88817841970E-15 -0.88645024246E+02  0.15323627215E+03  0.12499365896E+03 0.  0.
    9000006    2    3    3    0    0  0.10224549792E+02  0.48594626014E+01 -0.27977826428E+02  0.67162862080E+02  0.59999462297E+02 0.  0.
    9000007    2    3    3    0    0 -0.10224549792E+02 -0.48594626014E+01 -0.60667197819E+02  0.86073410071E+02  0.59999726956E+02 0.  0.
          5    1    4    4  501    0  0.31038004616E+01 -0.15907581456E+02  0.12414802213E+02  0.20949988999E+02  0.47000000000E+01 0.  1.
         -5    1    4    4    0  501  0.71207493302E+01  0.20767044058E+02 -0.40392628640E+02  0.46212873081E+02  0.47000000000E+01 0.  1.
         12    1    5    5    0    0  0.11900922109E+02  0.65590237554E+01 -0.59624569165E+02  0.61153429894E+02  0.00000000000E+00 0. -1.
        -12    1    5    5    0    0 -0.22125471901E+02 -0.11418486357E+02 -0.10426286539E+01  0.24919980177E+02  0.00000000000E+00 0. -1.
<mgrwt>
<rscale>  0 0.12499366E+03</rscale>
<asrwt>0</asrwt>
<pdfrwt beam="1">  1       21 0.49685575E-02 0.12499366E+03</pdfrwt>
<pdfrwt beam="2">  1       21 0.18606254E-01 0.12499366E+03</pdfrwt>
<totfact> 0.70366348E+06</totfact>
</mgrwt>
</event>
<event>
 9    1  0.4458519E-002  0.1249992E+03  0.7818608E-02  0.1235071E+00
         21   -1    0    0  503  502  0.00000000000E+00  0.00000000000E+00  0.62169085444E+01  0.62169085444E+01  0.00000000000E+00 0. -1.
         21   -1    0    0  502  503 -0.00000000000E+00 -0.00000000000E+00 -0.62831863114E+03  0.62831863114E+03  0.00000000000E+00 0. -1.
         25    2    1    2    0    0  0.00000000000E+00  0.00000000000E+00 -0.62210172259E+03  0.63453553968E+03  0.12499919146E+03 0.  0.
    9000006    2    3    3    0    0 -0.27286165122E+01 -0.10513009375E+02 -0.24142431392E+03  0.24900532356E+03  0.59999859106E+02 0.  0.
    9000007    2    3    3    0    0  0.27286165122E+01  0.10513009375E+02 -0.38067740867E+03  0.38553021612E+03  0.60002411275E+02 0.  0.
          5    1    4    4  501    0  0.17855288038E+02 -0.83038608336E+01 -0.28132597695E+02  0.34659752866E+02  0.47000000000E+01 0.  1.
         -5    1    4    4    0  501 -0.20583904550E+02 -0.22091485411E+01 -0.21329171623E+03  0.21434557069E+03  0.47000000000E+01 0.  1.
         12    1    5    5    0    0  0.92854212301E+01  0.96325760970E+01 -0.16278205564E+02  0.21070964526E+02  0.00000000000E+00 0. -1.
        -12    1    5    5    0    0 -0.65568047179E+01  0.88043327771E+00 -0.36439920311E+03  0.36445925160E+03  0.00000000000E+00 0. -1.
<mgrwt>
<rscale>  0 0.12499919E+03</rscale>
<asrwt>0</asrwt>
<pdfrwt beam="1">  1       21 0.95644760E-03 0.12499919E+03</pdfrwt>
<pdfrwt beam="2">  1       21 0.96664391E-01 0.12499919E+03</pdfrwt>
<totfact> 0.35576674E+06</totfact>
</mgrwt>
</event>
<event>
 9    1  0.4458519E-002  0.1249884E+03  0.7818608E-02  0.1235087E+00
         21   -1    0    0  503  502  0.00000000000E+00  0.00000000000E+00  0.43077804451E+02  0.43077804451E+02  0.00000000000E+00 0. -1.
         21   -1    0    0  502  503 -0.00000000000E+00 -0.00000000000E+00 -0.90662119898E+02  0.90662119898E+02  0.00000000000E+00 0. -1.
         25    2    1    2    0    0 -0.35527136788E-14  0.00000000000E+00 -0.47584315447E+02  0.13373992435E+03  0.12498840062E+03 0.  0.
    9000006    2    3    3    0    0 -0.87419611008E+01  0.13774594880E+02 -0.17083414588E+02  0.64483027439E+02  0.60000470212E+02 0.  0.
    9000007    2    3    3    0    0  0.87419611008E+01 -0.13774594880E+02 -0.30500900858E+02  0.69256896910E+02  0.60000428902E+02 0.  0.
          5    1    4    4  501    0 -0.33396920297E+02  0.38087839034E+00 -0.90296771140E+01  0.34915962287E+02  0.47000000000E+01 0.  1.
         -5    1    4    4    0  501  0.24654959196E+02  0.13393716490E+02 -0.80537374744E+01  0.29567065152E+02  0.47000000000E+01 0.  1.
         12    1    5    5    0    0  0.25751627345E+02  0.49900087264E+01  0.39204870397E+01  0.26522004386E+02  0.00000000000E+00 0.  1.
        -12    1    5    5    0    0 -0.17009666244E+02 -0.18764603607E+02 -0.34421387898E+02  0.42734892525E+02  0.00000000000E+00 0.  1.
<mgrwt>
<rscale>  0 0.12498840E+03</rscale>
<asrwt>0</asrwt>
<pdfrwt beam="1">  1       21 0.66273547E-02 0.12498840E+03</pdfrwt>
<pdfrwt beam="2">  1       21 0.13948018E-01 0.12498840E+03</pdfrwt>
<totfact> 0.72885315E+06</totfact>
</mgrwt>
</event>
<event>
 9    1  0.4458519E-002  0.1249902E+03  0.7818608E-02  0.1235085E+00
         21   -1    0    0  503  502  0.00000000000E+00  0.00000000000E+00  0.28197322901E+03  0.28197322901E+03  0.00000000000E+00 0. -1.
         21   -1    0    0  502  503 -0.00000000000E+00 -0.00000000000E+00 -0.13851097592E+02  0.13851097592E+02  0.00000000000E+00 0. -1.
         25    2    1    2    0    0  0.17763568394E-14  0.13322676296E-14  0.26812213142E+03  0.29582432660E+03  0.12499021903E+03 0.  0.
    9000006    2    3    3    0    0 -0.43784651596E+01 -0.31270427945E+01  0.17343182471E+03  0.18359611724E+03  0.59999892420E+02 0.  0.
    9000007    2    3    3    0    0  0.43784651596E+01  0.31270427945E+01  0.94690306707E+02  0.11222820936E+03  0.59999728647E+02 0.  0.
          5    1    4    4  501    0  0.24643000740E+02  0.64649096026E+01  0.49564021619E+02  0.55926333517E+02  0.47000000000E+01 0. -1.
         -5    1    4    4    0  501 -0.29021465900E+02 -0.95919523972E+01  0.12386780309E+03  0.12766978372E+03  0.47000000000E+01 0. -1.
         12    1    5    5    0    0  0.76464942036E+01 -0.25819914445E+01 -0.67826260709E+01  0.10542275364E+02  0.00000000000E+00 0. -1.
        -12    1    5    5    0    0 -0.32680290440E+01  0.57090342390E+01  0.10147293278E+03  0.10168593399E+03  0.00000000000E+00 0. -1.
<mgrwt>
<rscale>  0 0.12499022E+03</rscale>
<asrwt>0</asrwt>
<pdfrwt beam="1">  1       21 0.43380492E-01 0.12499022E+03</pdfrwt>
<pdfrwt beam="2">  1       21 0.21309383E-02 0.12499022E+03</pdfrwt>
<totfact> 0.55818705E+06</totfact>
</mgrwt>
</event>
<event>
 9    1  0.4458519E-002  0.1250065E+03  0.7818608E-02  0.1235059E+00
         21   -1    0    0  503  502  0.00000000000E+00  0.00000000000E+00  0.64810723758E+02  0.64810723758E+02  0.00000000000E+00 0.  1.
         21   -1    0    0  502  503 -0.00000000000E+00 -0.00000000000E+00 -0.60277968037E+02  0.60277968037E+02  0.00000000000E+00 0.  1.
         25    2    1    2    0    0  0.17763568394E-14  0.35527136788E-14  0.45327557214E+01  0.12508869179E+03  0.12500653959E+03 0.  0.
    9000006    2    3    3    0    0  0.81059084435E+01 -0.90130029951E+01 -0.10375480047E+02  0.62085487136E+02  0.60000142933E+02 0.  0.
    9000007    2    3    3    0    0 -0.81059084435E+01  0.90130029951E+01  0.14908235769E+02  0.63003204659E+02  0.60001736049E+02 0.  0.
          5    1    4    4  501    0 -0.16988452021E+02 -0.20552424709E+02 -0.18643369637E+02  0.32873620046E+02  0.47000000000E+01 0.  1.
         -5    1    4    4    0  501  0.25094360465E+02  0.11539421714E+02  0.82678895898E+01  0.29211867090E+02  0.47000000000E+01 0.  1.
         12    1    5    5    0    0 -0.21101501783E+02  0.29280957919E+02  0.32084030149E+01  0.36234537724E+02  0.00000000000E+00 0. -1.
        -12    1    5    5    0    0  0.12995593339E+02 -0.20267954924E+02  0.11699832754E+02  0.26768666935E+02  0.00000000000E+00 0. -1.
<mgrwt>
<rscale>  0 0.12500654E+03</rscale>
<asrwt>0</asrwt>
<pdfrwt beam="1">  1       21 0.99708805E-02 0.12500654E+03</pdfrwt>
<pdfrwt beam="2">  1       21 0.92735336E-02 0.12500654E+03</pdfrwt>
<totfact> 0.74019226E+06</totfact>
</mgrwt>
</event>
<event>
 8    1  0.4458519E-002  0.1241060E+03  0.7818608E-02  0.1236473E+00
         21   -1    0    0  503  502  0.00000000000E+00  0.00000000000E+00  0.11699997040E+02  0.11699997040E+02  0.00000000000E+00 0.  1.
         21   -1    0    0  502  503 -0.00000000000E+00 -0.00000000000E+00 -0.32910894232E+03  0.32910894232E+03  0.00000000000E+00 0.  1.
    9000006    2    1    2    0    0  0.97702784991E+01  0.83393062615E+01 -0.13329644480E+03  0.14674101554E+03  0.59999842282E+02 0.  0.
    9000007    2    1    2    0    0 -0.97702784991E+01 -0.83393062615E+01 -0.18411250047E+03  0.19406792381E+03  0.59999532107E+02 0.  0.
          5    1    3    3  501    0  0.19790805775E+02 -0.17247199725E+02 -0.31886302511E+02  0.41568836637E+02  0.47000000000E+01 0. -1.
         -5    1    3    3    0  501 -0.10020527276E+02  0.25586505987E+02 -0.10141014229E+03  0.10517217890E+03  0.47000000000E+01 0. -1.
         12    1    4    4    0    0  0.24874849127E+02 -0.27442267719E+01 -0.58114862549E+02  0.63274213933E+02  0.00000000000E+00 0.  1.
        -12    1    4    4    0    0 -0.34645127626E+02 -0.55950794896E+01 -0.12599763792E+03  0.13079370988E+03  0.00000000000E+00 0.  1.
<mgrwt>
<rscale>  0 0.12410598E+03</rscale>
<asrwt>0</asrwt>
<pdfrwt beam="1">  1       21 0.17999995E-02 0.12410598E+03</pdfrwt>
<pdfrwt beam="2">  1       21 0.50632147E-01 0.12410598E+03</pdfrwt>
<totfact> 0.53411647E+06</totfact>
</mgrwt>
</event>
<event>
 9    1  0.4458519E-002  0.1250009E+03  0.7818608E-02  0.1235068E+00
         21   -1    0    0  503  502  0.00000000000E+00  0.00000000000E+00  0.20216291277E+02  0.20216291277E+02  0.00000000000E+00 0. -1.
         21   -1    0    0  502  503 -0.00000000000E+00 -0.00000000000E+00 -0.19322567256E+03  0.19322567256E+03  0.00000000000E+00 0. -1.
         25    2    1    2    0    0 -0.35527136788E-14  0.17763568394E-14 -0.17300938129E+03  0.21344196384E+03  0.12500090366E+03 0.  0.
    9000006    2    3    3    0    0 -0.92666228289E+01 -0.61056093194E+01 -0.63405283237E+02  0.87998059304E+02  0.60002331081E+02 0.  0.
    9000007    2    3    3    0    0  0.92666228289E+01  0.61056093194E+01 -0.10960409805E+03  0.12544390454E+03  0.59999717602E+02 0.  0.
          5    1    4    4  501    0 -0.23594974676E+01 -0.99874364379E+01  0.93529609697E+01  0.14658921986E+02  0.47000000000E+01 0.  1.
         -5    1    4    4    0  501 -0.69071253613E+01  0.38818271185E+01 -0.72758244206E+02  0.73339137318E+02  0.47000000000E+01 0.  1.
         12    1    5    5    0    0 -0.23543244668E+02  0.10950138295E+02 -0.63902959310E+02  0.68976648997E+02  0.00000000000E+00 0.  1.
        -12    1    5    5    0    0  0.32809867497E+02 -0.48445289754E+01 -0.45701138740E+02  0.56467255540E+02  0.00000000000E+00 0.  1.
<mgrwt>
<rscale>  0 0.12500090E+03</rscale>
<asrwt>0</asrwt>
<pdfrwt beam="1">  1       21 0.31101987E-02 0.12500090E+03</pdfrwt>
<pdfrwt beam="2">  1       21 0.29727027E-01 0.12500090E+03</pdfrwt>
<totfact> 0.63497760E+06</totfact>
</mgrwt>
</event>
<event>
 9    1  0.4458519E-002  0.1250002E+03  0.7818608E-02  0.1235069E+00
         21   -1    0    0  503  502  0.00000000000E+00  0.00000000000E+00  0.12732243154E+02  0.12732243154E+02  0.00000000000E+00 0.  1.
         21   -1    0    0  502  503 -0.00000000000E+00 -0.00000000000E+00 -0.30680062783E+03  0.30680062783E+03  0.00000000000E+00 0.  1.
         25    2    1    2    0    0  0.17763568394E-14  0.17763568394E-14 -0.29406838467E+03  0.31953287098E+03  0.12500016309E+03 0.  0.
    9000006    2    3    3    0    0 -0.96462159720E+01 -0.13818709531E+02 -0.13498933002E+03  0.14868144885E+03  0.60000398326E+02 0.  0.
    9000007    2    3    3    0    0  0.96462159720E+01  0.13818709531E+02 -0.15907905466E+03  0.17085142213E+03  0.60000471639E+02 0.  0.
          5    1    4    4  501    0 -0.25271103905E+02  0.12566196608E+02 -0.43414901736E+02  0.51995015939E+02  0.47000000000E+01 0. -1.
         -5    1    4    4    0  501  0.15624887933E+02 -0.26384906138E+02 -0.91574428282E+02  0.96686432916E+02  0.47000000000E+01 0. -1.
         12    1    5    5    0    0  0.92701746896E+01 -0.23323407846E+02 -0.59938287137E+02  0.64980887631E+02  0.00000000000E+00 0.  1.
        -12    1    5    5    0    0  0.37604128244E+00  0.37142117377E+02 -0.99140767519E+02  0.10587053450E+03  0.00000000000E+00 0.  1.
<mgrwt>
<rscale>  0 0.12500016E+03</rscale>
<asrwt>0</asrwt>
<pdfrwt beam="1">  1       21 0.19588068E-02 0.12500016E+03</pdfrwt>
<pdfrwt beam="2">  1       21 0.47200093E-01 0.12500016E+03</pdfrwt>
<totfact> 0.53870162E+06</totfact>
</mgrwt>
</event>
<event>
 9    1  0.4458519E-002  0.1250001E+03  0.7818608E-02  0.1235069E+00
         21   -1    0    0  503  502  0.00000000000E+00  0.00000000000E+00  0.62625057861E+02  0.62625057861E+02  0.00000000000E+00 0.  1.
         21   -1    0    0  502  503 -0.00000000000E+00 -0.00000000000E+00 -0.62375298275E+02  0.62375298275E+02  0.00000000000E+00 0.  1.
         25    2    1    2    0    0  0.00000000000E+00  0.00000000000E+00  0.24975958589E+00  0.12500035614E+03  0.12500010662E+03 0.  0.
    9000006    2    3    3    0    0  0.67360940542E+01  0.81733848458E+01 -0.13807706499E+02  0.62473011741E+02  0.60000377118E+02 0.  0.
    9000007    2    3    3    0    0 -0.67360940542E+01 -0.81733848458E+01  0.14057466085E+02  0.62527344395E+02  0.59998977169E+02 0.  0.
          5    1    4    4  501    0  0.29620097392E+02 -0.85902668793E+01 -0.12744394943E+02  0.33699442978E+02  0.47000000000E+01 0.  1.
         -5    1    4    4    0  501 -0.22884003338E+02  0.16763651725E+02 -0.10633115562E+01  0.28773568763E+02  0.47000000000E+01 0.  1.
         12    1    5    5    0    0  0.59242108480E+01 -0.18030709034E+02  0.32775186237E+02  0.37873679189E+02  0.00000000000E+00 0.  1.
        -12    1    5    5    0    0 -0.12660304902E+02  0.98573241883E+01 -0.18717720152E+02  0.24653665205E+02  0.00000000000E+00 0.  1.
<mgrwt>
<rscale>  0 0.12500011E+03</rscale>
<asrwt>0</asrwt>
<pdfrwt beam="1">  1       21 0.96346243E-02 0.12500011E+03</pdfrwt>
<pdfrwt beam="2">  1       21 0.95961997E-02 0.12500011E+03</pdfrwt>
<totfact> 0.74043332E+06</totfact>
</mgrwt>
</event>
<event>
 9    1  0.4458519E-002  0.1250025E+03  0.7818608E-02  0.1235065E+00
         21   -1    0    0  503  502  0.00000000000E+00  0.00000000000E+00  0.32519607162E+02  0.32519607162E+02  0.00000000000E+00 0. -1.
         21   -1    0    0  502  503 -0.00000000000E+00 -0.00000000000E+00 -0.12012469399E+03  0.12012469399E+03  0.00000000000E+00 0. -1.
         25    2    1    2    0    0  0.17763568394E-14  0.00000000000E+00 -0.87605086824E+02  0.15264430115E+03  0.12500252572E+03 0.  0.
    9000006    2    3    3    0    0 -0.11898192913E+02  0.42688040689E+01 -0.58591133308E+02  0.84809402925E+02  0.59999368659E+02 0.  0.
    9000007    2    3    3    0    0  0.11898192913E+02 -0.42688040689E+01 -0.29013953516E+02  0.67834898223E+02  0.59999785296E+02 0.  0.
          5    1    4    4  501    0 -0.12557551494E+02 -0.17382170165E+02  0.22660263051E+00  0.21953890041E+02  0.47000000000E+01 0.  1.
         -5    1    4    4    0  501  0.65935858062E+00  0.21650974234E+02 -0.58817735939E+02  0.62855512884E+02  0.47000000000E+01 0.  1.
         12    1    5    5    0    0  0.27209199295E+02 -0.23044610950E+02 -0.24310152711E+02  0.43155279456E+02  0.00000000000E+00 0. -1.
        -12    1    5    5    0    0 -0.15311006382E+02  0.18775806881E+02 -0.47038008050E+01  0.24679618767E+02  0.00000000000E+00 0. -1.
<mgrwt>
<rscale>  0 0.12500253E+03</rscale>
<asrwt>0</asrwt>
<pdfrwt beam="1">  1       21 0.50030165E-02 0.12500253E+03</pdfrwt>
<pdfrwt beam="2">  1       21 0.18480722E-01 0.12500253E+03</pdfrwt>
<totfact> 0.70424061E+06</totfact>
</mgrwt>
</event>
<event>
 9    1  0.4458519E-002  0.1250000E+03  0.7818608E-02  0.1235069E+00
         21   -1    0    0  503  502  0.00000000000E+00  0.00000000000E+00  0.71163035699E+02  0.71163035699E+02  0.00000000000E+00 0.  1.
         21   -1    0    0  502  503 -0.00000000000E+00 -0.00000000000E+00 -0.54891572691E+02  0.54891572691E+02  0.00000000000E+00 0.  1.
         25    2    1    2    0    0 -0.35527136788E-14  0.00000000000E+00  0.16271463008E+02  0.12605460839E+03  0.12500001515E+03 0.  0.
    9000006    2    3    3    0    0  0.10177870340E+02  0.11214281852E+02 -0.70965992843E+00  0.61885357362E+02  0.59999538969E+02 0.  0.
    9000007    2    3    3    0    0 -0.10177870340E+02 -0.11214281852E+02  0.16981122937E+02  0.64169251029E+02  0.59999875660E+02 0.  0.
          5    1    4    4  501    0  0.53648622140E+00 -0.10044123977E+02 -0.25316607045E+02  0.27644037987E+02  0.47000000000E+01 0.  1.
         -5    1    4    4    0  501  0.96413841185E+01  0.21258405829E+02  0.24606947117E+02  0.34241319375E+02  0.47000000000E+01 0.  1.
         12    1    5    5    0    0 -0.34614717246E+02 -0.92611736705E+00  0.14495550512E+02  0.37538744359E+02  0.00000000000E+00 0.  1.
        -12    1    5    5    0    0  0.24436846906E+02 -0.10288164485E+02  0.24855724251E+01  0.26630506669E+02  0.00000000000E+00 0.  1.
<mgrwt>
<rscale>  0 0.12500002E+03</rscale>
<asrwt>0</asrwt>
<pdfrwt beam="1">  1       21 0.10948159E-01 0.12500002E+03</pdfrwt>
<pdfrwt beam="2">  1       21 0.84448574E-02 0.12500002E+03</pdfrwt>
<totfact> 0.73898484E+06</totfact>
</mgrwt>
</event>
<event>
 9    1  0.4458519E-002  0.1249987E+03  0.7818608E-02  0.1235071E+00
         21   -1    0    0  503  502  0.00000000000E+00  0.00000000000E+00  0.18050853322E+03  0.18050853322E+03  0.00000000000E+00 0. -1.
         21   -1    0    0  502  503 -0.00000000000E+00 -0.00000000000E+00 -0.21639802366E+02  0.21639802366E+02  0.00000000000E+00 0. -1.
         25    2    1    2    0    0 -0.88817841970E-15  0.17763568394E-14  0.15886873086E+03  0.20214833559E+03  0.12499870374E+03 0.  0.
    9000006    2    3    3    0    0 -0.77126368638E+01 -0.58197235715E+01  0.55841838061E+02  0.82532306053E+02  0.59999305950E+02 0.  0.
    9000007    2    3    3    0    0  0.77126368638E+01  0.58197235715E+01  0.10302689279E+03  0.11961602953E+03  0.60000832768E+02 0.  0.
          5    1    4    4  501    0 -0.13713714231E+02  0.15251124130E+02  0.56317545929E+02  0.60120035967E+02  0.47000000000E+01 0. -1.
         -5    1    4    4    0  501  0.60010773673E+01 -0.21070847702E+02 -0.47570786727E+00  0.22412270086E+02  0.47000000000E+01 0. -1.
         12    1    5    5    0    0 -0.17291803236E+02  0.13673312565E+02  0.84985099914E+02  0.87797683016E+02  0.00000000000E+00 0.  1.
        -12    1    5    5    0    0  0.25004440100E+02 -0.78535889939E+01  0.18041792881E+02  0.31818346518E+02  0.00000000000E+00 0.  1.
<mgrwt>
<rscale>  0 0.12499870E+03</rscale>
<asrwt>0</asrwt>
<pdfrwt beam="1">  1       21 0.27770543E-01 0.12499870E+03</pdfrwt>
<pdfrwt beam="2">  1       21 0.33292005E-02 0.12499870E+03</pdfrwt>
<totfact> 0.64697330E+06</totfact>
</mgrwt>
</event>
<event>
 9    1  0.4458519E-002  0.1249974E+03  0.7818608E-02  0.1235073E+00
         21   -1    0    0  503  502  0.00000000000E+00  0.00000000000E+00  0.64924828931E+01  0.64924828931E+01  0.00000000000E+00 0.  1.
         21   -1    0    0  502  503 -0.00000000000E+00 -0.00000000000E+00 -0.60163272161E+03  0.60163272161E+03  0.00000000000E+00 0.  1.
         25    2    1    2    0    0  0.00000000000E+00 -0.35527136788E-14 -0.59514023871E+03  0.60812520450E+03  0.12499744242E+03 0.  0.
    9000006    2    3    3    0    0 -0.14151250078E+02  0.25429132095E+01 -0.24907995600E+03  0.25660772018E+03  0.59999777411E+02 0.  0.
    9000007    2    3    3    0    0  0.14151250078E+02 -0.25429132095E+01 -0.34606028271E+03  0.35151748432E+03  0.60000818522E+02 0.  0.
          5    1    4    4  501    0  0.14495730258E+02 -0.18388931105E+02 -0.69293539320E+02  0.73293680317E+02  0.47000000000E+01 0. -1.
         -5    1    4    4    0  501 -0.28646980336E+02  0.20931844314E+02 -0.17978641668E+03  0.18331403986E+03  0.47000000000E+01 0. -1.
         12    1    5    5    0    0  0.28682863995E+02 -0.22883270604E+02 -0.20874351986E+03  0.21194387900E+03  0.00000000000E+00 0.  1.
        -12    1    5    5    0    0 -0.14531613917E+02  0.20340357395E+02 -0.13731676285E+03  0.13957360532E+03  0.00000000000E+00 0.  1.
<mgrwt>
<rscale>  0 0.12499744E+03</rscale>
<asrwt>0</asrwt>
<pdfrwt beam="1">  1       21 0.99884326E-03 0.12499744E+03</pdfrwt>
<pdfrwt beam="2">  1       21 0.92558904E-01 0.12499744E+03</pdfrwt>
<totfact> 0.36730064E+06</totfact>
</mgrwt>
</event>
<event>
 9    1  0.4458519E-002  0.1250053E+03  0.7818608E-02  0.1235061E+00
         21   -1    0    0  503  502  0.00000000000E+00  0.00000000000E+00  0.48165602191E+02  0.48165602191E+02  0.00000000000E+00 0.  1.
         21   -1    0    0  502  503 -0.00000000000E+00 -0.00000000000E+00 -0.81107336891E+02  0.81107336891E+02  0.00000000000E+00 0.  1.
         25    2    1    2    0    0  0.00000000000E+00  0.00000000000E+00 -0.32941734700E+02  0.12927293908E+03  0.12500533946E+03 0.  0.
    9000006    2    3    3    0    0 -0.10815140284E+02 -0.87151310580E+01 -0.54361823654E+01  0.61823690437E+02  0.59997465378E+02 0.  0.
    9000007    2    3    3    0    0  0.10815140284E+02  0.87151310580E+01 -0.27505552335E+02  0.67449248646E+02  0.59999374704E+02 0.  0.
          5    1    4    4  501    0 -0.16127518275E+02  0.17086085561E+02 -0.20131697078E+02  0.31295469205E+02  0.47000000000E+01 0.  1.
         -5    1    4    4    0  501  0.53123779917E+01 -0.25801216619E+02  0.14695514712E+02  0.30528221232E+02  0.47000000000E+01 0.  1.
         12    1    5    5    0    0  0.34901275526E+02  0.11868784575E+02 -0.12645321462E+02  0.38972698591E+02  0.00000000000E+00 0.  1.
        -12    1    5    5    0    0 -0.24086135242E+02 -0.31536535172E+01 -0.14860230873E+02  0.28476550054E+02  0.00000000000E+00 0.  1.
<mgrwt>
<rscale>  0 0.12500534E+03</rscale>
<asrwt>0</asrwt>
<pdfrwt beam="1">  1       21 0.74100927E-02 0.12500534E+03</pdfrwt>
<pdfrwt beam="2">  1       21 0.12478052E-01 0.12500534E+03</pdfrwt>
<totfact> 0.73452237E+06</totfact>
</mgrwt>
</event>
<event>
 9    1  0.4458519E-002  0.1250020E+03  0.7818608E-02  0.1235066E+00
         21   -1    0    0  503  502  0.00000000000E+00  0.00000000000E+00  0.26106818667E+02  0.26106818667E+02  0.00000000000E+00 0.  1.
         21   -1    0    0  502  503 -0.00000000000E+00 -0.00000000000E+00 -0.14963034959E+03  0.14963034959E+03  0.00000000000E+00 0.  1.
         25    2    1    2    0    0 -0.88817841970E-15  0.00000000000E+00 -0.12352353092E+03  0.17573716825E+03  0.12500195844E+03 0.  0.
    9000006    2    3    3    0    0  0.51657984084E+01 -0.12761485289E+02 -0.46572534518E+02  0.77191829741E+02  0.60000305227E+02 0.  0.
    9000007    2    3    3    0    0 -0.51657984084E+01  0.12761485289E+02 -0.76950996401E+02  0.98545338512E+02  0.60001557607E+02 0.  0.
          5    1    4    4  501    0 -0.50015195362E+01 -0.21237329542E+02  0.57245078342E+01  0.23041253301E+02  0.47000000000E+01 0. -1.
         -5    1    4    4    0  501  0.10167317945E+02  0.84758442526E+01 -0.52297042352E+02  0.54150576440E+02  0.47000000000E+01 0. -1.
         12    1    5    5    0    0 -0.24642380878E+02  0.24725323356E+02 -0.28840280401E+02  0.45280794207E+02  0.00000000000E+00 0. -1.
        -12    1    5    5    0    0  0.19476582469E+02 -0.11963838067E+02 -0.48110716000E+02  0.53264544305E+02  0.00000000000E+00 0. -1.
<mgrwt>
<rscale>  0 0.12500196E+03</rscale>
<asrwt>0</asrwt>
<pdfrwt beam="1">  1       21 0.40164336E-02 0.12500196E+03</pdfrwt>
<pdfrwt beam="2">  1       21 0.23020054E-01 0.12500196E+03</pdfrwt>
<totfact> 0.67640590E+06</totfact>
</mgrwt>
</event>
<event>
 9    1  0.4458519E-002  0.1249562E+03  0.7818608E-02  0.1235138E+00
         21   -1    0    0  503  502  0.00000000000E+00  0.00000000000E+00  0.20370651194E+02  0.20370651194E+02  0.00000000000E+00 0. -1.
         21   -1    0    0  502  503 -0.00000000000E+00 -0.00000000000E+00 -0.19162434734E+03  0.19162434734E+03  0.00000000000E+00 0. -1.
         25    2    1    2    0    0  0.35527136788E-14  0.00000000000E+00 -0.17125369615E+03  0.21199499854E+03  0.12495619617E+03 0.  0.
    9000006    2    3    3    0    0 -0.14630397037E+02  0.88407962185E+01 -0.79918644951E+02  0.10138641073E+03  0.60000052295E+02 0.  0.
    9000007    2    3    3    0    0  0.14630397037E+02 -0.88407962185E+01 -0.91335051198E+02  0.11060858780E+03  0.59999666028E+02 0.  0.
          5    1    4    4  501    0  0.30199883347E+01 -0.95361206375E+01  0.53422479309E+01  0.12275485298E+02  0.47000000000E+01 0.  1.
         -5    1    4    4    0  501 -0.17650385372E+02  0.18376916856E+02 -0.85260892882E+02  0.89110925435E+02  0.47000000000E+01 0.  1.
         12    1    5    5    0    0  0.31750037369E+02 -0.15020812377E+02 -0.28625954971E+02  0.45311532476E+02  0.00000000000E+00 0. -1.
        -12    1    5    5    0    0 -0.17119640332E+02  0.61800161585E+01 -0.62709096227E+02  0.65297055327E+02  0.00000000000E+00 0. -1.
<mgrwt>
<rscale>  0 0.12495620E+03</rscale>
<asrwt>0</asrwt>
<pdfrwt beam="1">  1       21 0.31339463E-02 0.12495620E+03</pdfrwt>
<pdfrwt beam="2">  1       21 0.29480669E-01 0.12495620E+03</pdfrwt>
<totfact> 0.63720811E+06</totfact>
</mgrwt>
</event>
<event>
 9    1  0.4458519E-002  0.1250014E+03  0.7818608E-02  0.1235067E+00
         21   -1    0    0  503  502  0.00000000000E+00  0.00000000000E+00  0.75911003554E+02  0.75911003554E+02  0.00000000000E+00 0.  1.
         21   -1    0    0  502  503 -0.00000000000E+00 -0.00000000000E+00 -0.51459427425E+02  0.51459427425E+02  0.00000000000E+00 0.  1.
         25    2    1    2    0    0  0.00000000000E+00  0.00000000000E+00  0.24451576128E+02  0.12737043098E+03  0.12500138844E+03 0.  0.
    9000006    2    3    3    0    0 -0.15524302999E+00 -0.37862021106E+01 -0.51817314657E+01  0.60343994089E+02  0.60001565437E+02 0.  0.
    9000007    2    3    3    0    0  0.15524302999E+00  0.37862021106E+01  0.29633307594E+02  0.67026436890E+02  0.60000424135E+02 0.  0.
          5    1    4    4  501    0 -0.21823477109E+02 -0.14490007783E+02  0.13114067726E+02  0.29669736282E+02  0.47000000000E+01 0.  1.
         -5    1    4    4    0  501  0.21668234079E+02  0.10703805673E+02 -0.18295799192E+02  0.30674257808E+02  0.47000000000E+01 0.  1.
         12    1    5    5    0    0  0.21670242422E+02  0.85916766335E+01 -0.69403978595E+01  0.24322529401E+02  0.00000000000E+00 0. -1.
        -12    1    5    5    0    0 -0.21514999392E+02 -0.48054745229E+01  0.36573705454E+02  0.42703907489E+02  0.00000000000E+00 0. -1.
<mgrwt>
<rscale>  0 0.12500139E+03</rscale>
<asrwt>0</asrwt>
<pdfrwt beam="1">  1       21 0.11678616E-01 0.12500139E+03</pdfrwt>
<pdfrwt beam="2">  1       21 0.79168350E-02 0.12500139E+03</pdfrwt>
<totfact> 0.73716179E+06</totfact>
</mgrwt>
</event>
<event>
 9    1  0.4458519E-002  0.1249965E+03  0.7818608E-02  0.1235075E+00
         21   -1    0    0  503  502  0.00000000000E+00  0.00000000000E+00  0.88727978695E+01  0.88727978695E+01  0.00000000000E+00 0. -1.
         21   -1    0    0  502  503 -0.00000000000E+00 -0.00000000000E+00 -0.44022530786E+03  0.44022530786E+03  0.00000000000E+00 0. -1.
         25    2    1    2    0    0  0.17763568394E-14  0.17763568394E-14 -0.43135250999E+03  0.44909810573E+03  0.12499648273E+03 0.  0.
    9000006    2    3    3    0    0  0.15744652620E+01 -0.12453128826E+02 -0.25944613898E+03  0.26658946957E+03  0.60000724126E+02 0.  0.
    9000007    2    3    3    0    0 -0.15744652620E+01  0.12453128826E+02 -0.17190637101E+03  0.18250863616E+03  0.60000354336E+02 0.  0.
          5    1    4    4  501    0  0.11370401562E+02 -0.64021674701E+00 -0.24401167844E+03  0.24432250229E+03  0.47000000000E+01 0. -1.
         -5    1    4    4    0  501 -0.97959362996E+01 -0.11812912079E+02 -0.15434460540E+02  0.22266967282E+02  0.47000000000E+01 0. -1.
         12    1    5    5    0    0  0.26832954868E+02  0.11905123920E+02 -0.56677588904E+02  0.63828587063E+02  0.00000000000E+00 0. -1.
        -12    1    5    5    0    0 -0.28407420130E+02  0.54800490594E+00 -0.11522878211E+03  0.11868004910E+03  0.00000000000E+00 0. -1.
<mgrwt>
<rscale>  0 0.12499648E+03</rscale>
<asrwt>0</asrwt>
<pdfrwt beam="1">  1       21 0.13650459E-02 0.12499648E+03</pdfrwt>
<pdfrwt beam="2">  1       21 0.67726965E-01 0.12499648E+03</pdfrwt>
<totfact> 0.44950230E+06</totfact>
</mgrwt>
</event>
<event>
 9    1  0.4458519E-002  0.1250201E+03  0.7818608E-02  0.1235038E+00
         21   -1    0    0  503  502  0.00000000000E+00  0.00000000000E+00  0.38187662340E+03  0.38187662340E+03  0.00000000000E+00 0.  1.
         21   -1    0    0  502  503 -0.00000000000E+00 -0.00000000000E+00 -0.10232382926E+02  0.10232382926E+02  0.00000000000E+00 0.  1.
         25    2    1    2    0    0 -0.35527136788E-14  0.00000000000E+00  0.37164424048E+03  0.39210900633E+03  0.12502012384E+03 0.  0.
    9000006    2    3    3    0    0  0.13240662770E+02  0.75495518837E+01  0.21301854301E+03  0.22183143445E+03  0.59999789671E+02 0.  0.
    9000007    2    3    3    0    0 -0.13240662770E+02 -0.75495518837E+01  0.15862569747E+03  0.17027757188E+03  0.60000239192E+02 0.  0.
          5    1    4    4  501    0  0.24514565187E+02 -0.12818998191E+02  0.52157463752E+02  0.59226528228E+02  0.47000000000E+01 0. -1.
         -5    1    4    4    0  501 -0.11273902417E+02  0.20368550075E+02  0.16086107926E+03  0.16260490622E+03  0.47000000000E+01 0. -1.
         12    1    5    5    0    0 -0.23945737993E+02  0.16782792755E+02  0.45618633269E+02  0.54185977910E+02  0.00000000000E+00 0.  1.
        -12    1    5    5    0    0  0.10705075223E+02 -0.24332344639E+02  0.11300706420E+03  0.11609159397E+03  0.00000000000E+00 0.  1.
<mgrwt>
<rscale>  0 0.12502012E+03</rscale>
<asrwt>0</asrwt>
<pdfrwt beam="1">  1       21 0.58750239E-01 0.12502012E+03</pdfrwt>
<pdfrwt beam="2">  1       21 0.15742131E-02 0.12502012E+03</pdfrwt>
<totfact> 0.48544769E+06</totfact>
</mgrwt>
</event>
<event>
 9    1  0.4458519E-002  0.1249884E+03  0.7818608E-02  0.1235087E+00
         21   -1    0    0  503  502  0.00000000000E+00  0.00000000000E+00  0.98393585514E+02  0.98393585514E+02  0.00000000000E+00 0. -1.
         21   -1    0    0  502  503 -0.00000000000E+00 -0.00000000000E+00 -0.39692909122E+02  0.39692909122E+02  0.00000000000E+00 0. -1.
         25    2    1    2    0    0 -0.17763568394E-14 -0.17763568394E-14  0.58700676392E+02  0.13808649464E+03  0.12498844183E+03 0.  0.
    9000006    2    3    3    0    0  0.13125573108E+01  0.19618003840E+01  0.48484756009E+02  0.77177277194E+02  0.59999909020E+02 0.  0.
    9000007    2    3    3    0    0 -0.13125573108E+01 -0.19618003840E+01  0.10215920383E+02  0.60909217443E+02  0.59999968940E+02 0.  0.
          5    1    4    4  501    0 -0.18321254688E+02 -0.97272942527E+01 -0.21989548797E+01  0.21382563677E+02  0.47000000000E+01 0. -1.
         -5    1    4    4    0  501  0.19633811999E+02  0.11689094637E+02  0.50683710889E+02  0.55794713517E+02  0.47000000000E+01 0. -1.
         12    1    5    5    0    0 -0.46660402083E+01 -0.29609488795E+02  0.13483437666E+02  0.32867869557E+02  0.00000000000E+00 0.  1.
        -12    1    5    5    0    0  0.33534828975E+01  0.27647688411E+02 -0.32675172831E+01  0.28041347885E+02  0.00000000000E+00 0.  1.
<mgrwt>
<rscale>  0 0.12498844E+03</rscale>
<asrwt>0</asrwt>
<pdfrwt beam="1">  1       21 0.15137475E-01 0.12498844E+03</pdfrwt>
<pdfrwt beam="2">  1       21 0.61066015E-02 0.12498844E+03</pdfrwt>
<totfact> 0.72311402E+06</totfact>
</mgrwt>
</event>
<event>
 9    1  0.4458519E-002  0.1250133E+03  0.7818608E-02  0.1235048E+00
         21   -1    0    0  503  502  0.00000000000E+00  0.00000000000E+00  0.33740424429E+02  0.33740424429E+02  0.00000000000E+00 0. -1.
         21   -1    0    0  502  503 -0.00000000000E+00 -0.00000000000E+00 -0.11579831538E+03  0.11579831538E+03  0.00000000000E+00 0. -1.
         25    2    1    2    0    0  0.17763568394E-14  0.71054273576E-14 -0.82057890956E+02  0.14953873981E+03  0.12501334823E+03 0.  0.
    9000006    2    3    3    0    0 -0.28728199108E+01  0.16351190137E+02 -0.34314818508E+02  0.71084889499E+02  0.59999501937E+02 0.  0.
    9000007    2    3    3    0    0  0.28728199108E+01 -0.16351190137E+02 -0.47743072449E+02  0.78453850315E+02  0.59999926244E+02 0.  0.
          5    1    4    4  501    0 -0.17510585806E+02  0.32375052710E+02 -0.31552559204E+02  0.48707480386E+02  0.47000000000E+01 0.  1.
         -5    1    4    4    0  501  0.14637765895E+02 -0.16023862573E+02 -0.27622593037E+01  0.22377409113E+02  0.47000000000E+01 0.  1.
         12    1    5    5    0    0 -0.14530222303E+02 -0.33724676378E+02 -0.35120488154E+02  0.50812693741E+02  0.00000000000E+00 0.  1.
        -12    1    5    5    0    0  0.17403042214E+02  0.17373486242E+02 -0.12622584295E+02  0.27641156574E+02  0.00000000000E+00 0.  1.
<mgrwt>
<rscale>  0 0.12501335E+03</rscale>
<asrwt>0</asrwt>
<pdfrwt beam="1">  1       21 0.51908346E-02 0.12501335E+03</pdfrwt>
<pdfrwt beam="2">  1       21 0.17815125E-01 0.12501335E+03</pdfrwt>
<totfact> 0.70793133E+06</totfact>
</mgrwt>
</event>
<event>
 9    1  0.4458519E-002  0.1250007E+03  0.7818608E-02  0.1235068E+00
         21   -1    0    0  503  502  0.00000000000E+00  0.00000000000E+00  0.28752056964E+02  0.28752056964E+02  0.00000000000E+00 0.  1.
         21   -1    0    0  502  503 -0.00000000000E+00 -0.00000000000E+00 -0.13586135866E+03  0.13586135866E+03  0.00000000000E+00 0.  1.
         25    2    1    2    0    0 -0.17763568394E-14  0.00000000000E+00 -0.10710930170E+03  0.16461341562E+03  0.12500069637E+03 0.  0.
    9000006    2    3    3    0    0  0.98500997704E+01 -0.56416604191E+01 -0.71095615901E+02  0.93720379699E+02  0.60000584771E+02 0.  0.
    9000007    2    3    3    0    0 -0.98500997704E+01  0.56416604191E+01 -0.36013685795E+02  0.70893035924E+02  0.59999868169E+02 0.  0.
          5    1    4    4  501    0 -0.24876522104E+02 -0.12975311912E+01 -0.24480550272E+02  0.35240775826E+02  0.47000000000E+01 0.  1.
         -5    1    4    4    0  501  0.34726621875E+02 -0.43441292279E+01 -0.46615065629E+02  0.58479603873E+02  0.47000000000E+01 0.  1.
         12    1    5    5    0    0  0.13825625105E+02 -0.16976179124E+02 -0.30722145928E+02  0.37725174852E+02  0.00000000000E+00 0. -1.
        -12    1    5    5    0    0 -0.23675724875E+02  0.22617839543E+02 -0.52915398672E+01  0.33167861073E+02  0.00000000000E+00 0. -1.
<mgrwt>
<rscale>  0 0.12500070E+03</rscale>
<asrwt>0</asrwt>
<pdfrwt beam="1">  1       21 0.44233933E-02 0.12500070E+03</pdfrwt>
<pdfrwt beam="2">  1       21 0.20901748E-01 0.12500070E+03</pdfrwt>
<totfact> 0.68958914E+06</totfact>
</mgrwt>
</event>
<event>
 9    1  0.4458519E-002  0.1250011E+03  0.7818608E-02  0.1235067E+00
         21   -1    0    0  503  502  0.00000000000E+00  0.00000000000E+00  0.39355316006E+03  0.39355316006E+03  0.00000000000E+00 0.  1.
         21   -1    0    0  502  503 -0.00000000000E+00 -0.00000000000E+00 -0.99257782667E+01  0.99257782667E+01  0.00000000000E+00 0.  1.
         25    2    1    2    0    0  0.00000000000E+00 -0.17763568394E-14  0.38362738179E+03  0.40347893833E+03  0.12500114244E+03 0.  0.
    9000006    2    3    3    0    0  0.10192224875E+02 -0.67178982525E+01  0.23229679850E+03  0.24023090495E+03  0.60000612439E+02 0.  0.
    9000007    2    3    3    0    0 -0.10192224875E+02  0.67178982525E+01  0.15133058329E+03  0.16324803338E+03  0.59999694648E+02 0.  0.
          5    1    4    4  501    0 -0.79638567665E+01 -0.15625225661E+02  0.20361218165E+02  0.27280760559E+02  0.47000000000E+01 0.  1.
         -5    1    4    4    0  501  0.18156081642E+02  0.89073274084E+01  0.21193558034E+03  0.21295014439E+03  0.47000000000E+01 0.  1.
         12    1    5    5    0    0  0.16436900308E+02  0.84140698619E+01  0.12281420398E+03  0.12419459313E+03  0.00000000000E+00 0.  1.
        -12    1    5    5    0    0 -0.26629125183E+02 -0.16961716094E+01  0.28516379306E+02  0.39053440244E+02  0.00000000000E+00 0.  1.
<mgrwt>
<rscale>  0 0.12500114E+03</rscale>
<asrwt>0</asrwt>
<pdfrwt beam="1">  1       21 0.60546628E-01 0.12500114E+03</pdfrwt>
<pdfrwt beam="2">  1       21 0.15270431E-02 0.12500114E+03</pdfrwt>
<totfact> 0.47810089E+06</totfact>
</mgrwt>
</event>
<event>
 9    1  0.4458519E-002  0.1249984E+03  0.7818608E-02  0.1235072E+00
         21   -1    0    0  503  502  0.00000000000E+00  0.00000000000E+00  0.51532334514E+02  0.51532334514E+02  0.00000000000E+00 0. -1.
         21   -1    0    0  502  503 -0.00000000000E+00 -0.00000000000E+00 -0.75800036150E+02  0.75800036150E+02  0.00000000000E+00 0. -1.
         25    2    1    2    0    0  0.00000000000E+00  0.17763568394E-14 -0.24267701635E+02  0.12733237066E+03  0.12499844510E+03 0.  0.
    9000006    2    3    3    0    0  0.10485470684E+02  0.78878850290E+01 -0.23925906715E+02  0.65913660272E+02  0.59999981439E+02 0.  0.
    9000007    2    3    3    0    0 -0.10485470684E+02 -0.78878850290E+01 -0.34179492088E+00  0.61418710392E+02  0.59999811139E+02 0.  0.
          5    1    4    4  501    0 -0.21236584011E+02 -0.66691684450E+01 -0.20334787742E+02  0.30513339717E+02  0.47000000000E+01 0.  1.
         -5    1    4    4    0  501  0.31722054695E+02  0.14557053474E+02 -0.35911189727E+01  0.35400320555E+02  0.47000000000E+01 0.  1.
         12    1    5    5    0    0  0.13108256452E+02 -0.26633819345E+02  0.67912355970E+01  0.30451725748E+02  0.00000000000E+00 0.  1.
        -12    1    5    5    0    0 -0.23593727136E+02  0.18745934316E+02 -0.71330305178E+01  0.30966984643E+02  0.00000000000E+00 0.  1.
<mgrwt>
<rscale>  0 0.12499845E+03</rscale>
<asrwt>0</asrwt>
<pdfrwt beam="1">  1       21 0.79280515E-02 0.12499845E+03</pdfrwt>
<pdfrwt beam="2">  1       21 0.11661544E-01 0.12499845E+03</pdfrwt>
<totfact> 0.73726883E+06</totfact>
</mgrwt>
</event>
<event>
 9    1  0.4458519E-002  0.1250000E+03  0.7818608E-02  0.1235069E+00
         21   -1    0    0  503  502  0.00000000000E+00  0.00000000000E+00  0.33644141039E+01  0.33644141039E+01  0.00000000000E+00 0.  1.
         21   -1    0    0  502  503 -0.00000000000E+00 -0.00000000000E+00 -0.11610499873E+04  0.11610499873E+04  0.00000000000E+00 0.  1.
         25    2    1    2    0    0 -0.17763568394E-14  0.17763568394E-14 -0.11576855732E+04  0.11644144014E+04  0.12500004724E+03 0.  0.
    9000006    2    3    3    0    0 -0.14079609426E+02  0.10342243281E+02 -0.56876551752E+03  0.57218801777E+03  0.59997636277E+02 0.  0.
    9000007    2    3    3    0    0  0.14079609426E+02 -0.10342243281E+02 -0.58892005569E+03  0.59222638365E+03  0.60000500835E+02 0.  0.
          5    1    4    4  501    0 -0.20457063945E+01 -0.15054881957E+02 -0.44087163634E+03  0.44115838892E+03  0.47000000000E+01 0. -1.
         -5    1    4    4    0  501 -0.12033903031E+02  0.25397125238E+02 -0.12789388118E+03  0.13102962885E+03  0.47000000000E+01 0. -1.
         12    1    5    5    0    0 -0.16823473008E+02 -0.13013871958E+02 -0.95845322882E+02  0.98176962805E+02  0.00000000000E+00 0.  1.
        -12    1    5    5    0    0  0.30903082434E+02  0.26716286770E+01 -0.49307473281E+03  0.49404942084E+03  0.00000000000E+00 0.  1.
<mgrwt>
<rscale>  0 0.12500005E+03</rscale>
<asrwt>0</asrwt>
<pdfrwt beam="1">  1       21 0.51760184E-03 0.12500005E+03</pdfrwt>
<pdfrwt beam="2">  1       21 0.17862319E+00 0.12500005E+03</pdfrwt>
<totfact> 0.19867259E+06</totfact>
</mgrwt>
</event>
<event>
 9    1  0.4458519E-002  0.1250029E+03  0.7818608E-02  0.1235065E+00
         21   -1    0    0  503  502  0.00000000000E+00  0.00000000000E+00  0.45745631225E+03  0.45745631225E+03  0.00000000000E+00 0.  1.
         21   -1    0    0  502  503 -0.00000000000E+00 -0.00000000000E+00 -0.85394621285E+01  0.85394621285E+01  0.00000000000E+00 0.  1.
         25    2    1    2    0    0 -0.17763568394E-14 -0.35527136788E-14  0.44891685012E+03  0.46599577438E+03  0.12500289363E+03 0.  0.
    9000006    2    3    3    0    0  0.53006752281E+01  0.53108202344E+01  0.28341643201E+03  0.28979510647E+03  0.60000231935E+02 0.  0.
    9000007    2    3    3    0    0 -0.53006752281E+01 -0.53108202344E+01  0.16550041812E+03  0.17620066791E+03  0.59999875054E+02 0.  0.
          5    1    4    4  501    0  0.21246611966E+02 -0.20358903779E+02  0.14758760426E+03  0.15056591386E+03  0.47000000000E+01 0.  1.
         -5    1    4    4    0  501 -0.15945936738E+02  0.25669724013E+02  0.13582882774E+03  0.13922919261E+03  0.47000000000E+01 0.  1.
         12    1    5    5    0    0 -0.28389091526E+02  0.83216877382E+00  0.13219864363E+03  0.13521506721E+03  0.00000000000E+00 0. -1.
        -12    1    5    5    0    0  0.23088416298E+02 -0.61429890082E+01  0.33301774488E+02  0.40985600705E+02  0.00000000000E+00 0. -1.
<mgrwt>
<rscale>  0 0.12500289E+03</rscale>
<asrwt>0</asrwt>
<pdfrwt beam="1">  1       21 0.70377875E-01 0.12500289E+03</pdfrwt>
<pdfrwt beam="2">  1       21 0.13137638E-02 0.12500289E+03</pdfrwt>
<totfact> 0.43947171E+06</totfact>
</mgrwt>
</event>
<event>
 9    1  0.4458519E-002  0.1250028E+03  0.7818608E-02  0.1235065E+00
         21   -1    0    0  503  502  0.00000000000E+00  0.00000000000E+00  0.53179549734E+02  0.53179549734E+02  0.00000000000E+00 0. -1.
         21   -1    0    0  502  503 -0.00000000000E+00 -0.00000000000E+00 -0.73457287764E+02  0.73457287764E+02  0.00000000000E+00 0. -1.
         25    2    1    2    0    0  0.00000000000E+00 -0.53290705182E-14 -0.20277738030E+02  0.12663683750E+03  0.12500280778E+03 0.  0.
    9000006    2    3    3    0    0  0.11916432469E+02 -0.91213983411E+01 -0.10097790727E+01  0.61856911642E+02  0.60000471611E+02 0.  0.
    9000007    2    3    3    0    0 -0.11916432469E+02  0.91213983411E+01 -0.19267958957E+02  0.64779925857E+02  0.59999860676E+02 0.  0.
          5    1    4    4  501    0 -0.29795640550E+01 -0.32668168926E+02  0.31819498622E+01  0.33291168016E+02  0.47000000000E+01 0. -1.
         -5    1    4    4    0  501  0.14895996524E+02  0.23546770585E+02 -0.41917289349E+01  0.28565743626E+02  0.47000000000E+01 0. -1.
         12    1    5    5    0    0  0.14901498664E+02  0.59299071709E+01 -0.31333964673E+02  0.35199940392E+02  0.00000000000E+00 0. -1.
        -12    1    5    5    0    0 -0.26817931133E+02  0.31914911701E+01  0.12066005716E+02  0.29579985465E+02  0.00000000000E+00 0. -1.
<mgrwt>
<rscale>  0 0.12500281E+03</rscale>
<asrwt>0</asrwt>
<pdfrwt beam="1">  1       21 0.81814692E-02 0.12500281E+03</pdfrwt>
<pdfrwt beam="2">  1       21 0.11301121E-01 0.12500281E+03</pdfrwt>
<totfact> 0.73813372E+06</totfact>
</mgrwt>
</event>
<event>
 9    1  0.4458519E-002  0.1250026E+03  0.7818608E-02  0.1235065E+00
         21   -1    0    0  503  502  0.00000000000E+00  0.00000000000E+00  0.69797391809E+03  0.69797391809E+03  0.00000000000E+00 0. -1.
         21   -1    0    0  502  503 -0.00000000000E+00 -0.00000000000E+00 -0.55967863506E+01  0.55967863506E+01  0.00000000000E+00 0. -1.
         25    2    1    2    0    0 -0.35527136788E-14 -0.17763568394E-14  0.69237713174E+03  0.70357070444E+03  0.12500257434E+03 0.  0.
    9000006    2    3    3    0    0  0.16497967843E+02 -0.23006920091E+01  0.31583634328E+03  0.32191613004E+03  0.59999357629E+02 0.  0.
    9000007    2    3    3    0    0 -0.16497967843E+02  0.23006920091E+01  0.37654078847E+03  0.38165457441E+03  0.59998105485E+02 0.  0.
          5    1    4    4  501    0  0.79537452275E+01  0.26529894990E+02  0.20724576977E+03  0.20914109228E+03  0.47000000000E+01 0.  1.
         -5    1    4    4    0  501  0.85442226157E+01 -0.28830586999E+02  0.10859057351E+03  0.11277503776E+03  0.47000000000E+01 0.  1.
         12    1    5    5    0    0  0.12890703326E+02 -0.13867624686E+02  0.25089962332E+03  0.25161300091E+03  0.00000000000E+00 0. -1.
        -12    1    5    5    0    0 -0.29388671169E+02  0.16168316695E+02  0.12564116515E+03  0.13004157350E+03  0.00000000000E+00 0. -1.
<mgrwt>
<rscale>  0 0.12500257E+03</rscale>
<asrwt>0</asrwt>
<pdfrwt beam="1">  1       21 0.10738053E+00 0.12500257E+03</pdfrwt>
<pdfrwt beam="2">  1       21 0.86104461E-03 0.12500257E+03</pdfrwt>
<totfact> 0.32770856E+06</totfact>
</mgrwt>
</event>
<event>
 9    1  0.4458519E-002  0.1250008E+03  0.7818608E-02  0.1235068E+00
         21   -1    0    0  503  502  0.00000000000E+00  0.00000000000E+00  0.17783571596E+02  0.17783571596E+02  0.00000000000E+00 0.  1.
         21   -1    0    0  502  503 -0.00000000000E+00 -0.00000000000E+00 -0.21965773270E+03  0.21965773270E+03  0.00000000000E+00 0.  1.
         25    2    1    2    0    0  0.88817841970E-15 -0.35527136788E-14 -0.20187416111E+03  0.23744130430E+03  0.12500078426E+03 0.  0.
    9000006    2    3    3    0    0 -0.65248287420E+01  0.33110551257E+01 -0.70736374321E+02  0.93044101560E+02  0.60000280890E+02 0.  0.
    9000007    2    3    3    0    0  0.65248287420E+01 -0.33110551257E+01 -0.13113778678E+03  0.14439720274E+03  0.59999137991E+02 0.  0.
          5    1    4    4  501    0 -0.26736094576E+02  0.20022120315E+02 -0.41744081909E+02  0.53669008091E+02  0.47000000000E+01 0. -1.
         -5    1    4    4    0  501  0.20211265834E+02 -0.16711065189E+02 -0.28992292412E+02  0.39375093469E+02  0.47000000000E+01 0. -1.
         12    1    5    5    0    0 -0.13460263920E+01  0.15100814663E+02 -0.12101362883E+03  0.12195960296E+03  0.00000000000E+00 0. -1.
        -12    1    5    5    0    0  0.78708551340E+01 -0.18411869789E+02 -0.10124157953E+02  0.22437599780E+02  0.00000000000E+00 0. -1.
<mgrwt>
<rscale>  0 0.12500078E+03</rscale>
<asrwt>0</asrwt>
<pdfrwt beam="1">  1       21 0.27359343E-02 0.12500078E+03</pdfrwt>
<pdfrwt beam="2">  1       21 0.33793495E-01 0.12500078E+03</pdfrwt>
<totfact> 0.61079937E+06</totfact>
</mgrwt>
</event>
<event>
 9    1  0.4458519E-002  0.1250013E+03  0.7818608E-02  0.1235067E+00
         21   -1    0    0  503  502  0.00000000000E+00  0.00000000000E+00  0.41817783746E+01  0.41817783746E+01  0.00000000000E+00 0. -1.
         21   -1    0    0  502  503 -0.00000000000E+00 -0.00000000000E+00 -0.93413196109E+03  0.93413196109E+03  0.00000000000E+00 0. -1.
         25    2    1    2    0    0 -0.71054273576E-14  0.00000000000E+00 -0.92995018271E+03  0.93831373946E+03  0.12500132534E+03 0.  0.
    9000006    2    3    3    0    0 -0.90082383523E+01 -0.12324486868E+00 -0.57764513643E+03  0.58082278506E+03  0.60000337159E+02 0.  0.
    9000007    2    3    3    0    0  0.90082383523E+01  0.12324486868E+00 -0.35230504629E+03  0.35749095440E+03  0.59998110751E+02 0.  0.
          5    1    4    4  501    0 -0.32460205382E+02  0.52207415876E+01 -0.23966104731E+03  0.24195129401E+03  0.47000000000E+01 0. -1.
         -5    1    4    4    0  501  0.23451967030E+02 -0.53439864562E+01 -0.33798408912E+03  0.33887149105E+03  0.47000000000E+01 0. -1.
         12    1    5    5    0    0  0.26179306736E+02 -0.15857206373E+02 -0.11410445067E+03  0.11813819348E+03  0.00000000000E+00 0. -1.
        -12    1    5    5    0    0 -0.17171068384E+02  0.15980451242E+02 -0.23820059561E+03  0.23935276092E+03  0.00000000000E+00 0. -1.
<mgrwt>
<rscale>  0 0.12500133E+03</rscale>
<asrwt>0</asrwt>
<pdfrwt beam="1">  1       21 0.64335019E-03 0.12500133E+03</pdfrwt>
<pdfrwt beam="2">  1       21 0.14371268E+00 0.12500133E+03</pdfrwt>
<totfact> 0.25226084E+06</totfact>
</mgrwt>
</event>
<event>
 9    1  0.4458519E-002  0.1250046E+03  0.7818608E-02  0.1235062E+00
         21   -1    0    0  503  502  0.00000000000E+00  0.00000000000E+00  0.93317642312E+03  0.93317642312E+03  0.00000000000E+00 0.  1.
         21   -1    0    0  502  503 -0.00000000000E+00 -0.00000000000E+00 -0.41862769016E+01  0.41862769016E+01  0.00000000000E+00 0.  1.
         25    2    1    2    0    0  0.00000000000E+00  0.00000000000E+00  0.92899014622E+03  0.93736270002E+03  0.12500455840E+03 0.  0.
    9000006    2    3    3    0    0  0.13609678796E+02  0.11005995374E+02  0.46168494606E+03  0.46589632153E+03  0.60000314202E+02 0.  0.
    9000007    2    3    3    0    0 -0.13609678796E+02 -0.11005995374E+02  0.46730520016E+03  0.47146637849E+03  0.60000338858E+02 0.  0.
          5    1    4    4  501    0  0.15486035430E+02  0.86148468412E+01  0.38172916660E+02  0.42347307420E+02  0.47000000000E+01 0.  1.
         -5    1    4    4    0  501 -0.18763566336E+01  0.23911485326E+01  0.42351202940E+03  0.42354901411E+03  0.47000000000E+01 0.  1.
         12    1    5    5    0    0 -0.17393107114E+02  0.16168248770E+02  0.35741098137E+03  0.35819902575E+03  0.00000000000E+00 0. -1.
        -12    1    5    5    0    0  0.37834283183E+01 -0.27174244144E+02  0.10989421879E+03  0.11326735275E+03  0.00000000000E+00 0. -1.
<mgrwt>
<rscale>  0 0.12500456E+03</rscale>
<asrwt>0</asrwt>
<pdfrwt beam="1">  1       21 0.14356544E+00 0.12500456E+03</pdfrwt>
<pdfrwt beam="2">  1       21 0.64404334E-03 0.12500456E+03</pdfrwt>
<totfact> 0.25250016E+06</totfact>
</mgrwt>
</event>
<event>
 9    1  0.4458519E-002  0.1249997E+03  0.7818608E-02  0.1235070E+00
         21   -1    0    0  503  502  0.00000000000E+00  0.00000000000E+00  0.76974491955E+01  0.76974491955E+01  0.00000000000E+00 0.  1.
         21   -1    0    0  502  503 -0.00000000000E+00 -0.00000000000E+00 -0.50747087568E+03  0.50747087568E+03  0.00000000000E+00 0.  1.
         25    2    1    2    0    0  0.35527136788E-14  0.17763568394E-14 -0.49977342649E+03  0.51516832488E+03  0.12499970054E+03 0.  0.
    9000006    2    3    3    0    0  0.72837023288E+01  0.10685057671E+02 -0.20131892966E+03  0.21046800746E+03  0.60002066201E+02 0.  0.
    9000007    2    3    3    0    0 -0.72837023288E+01 -0.10685057671E+02 -0.29845449683E+03  0.30470031742E+03  0.59999783169E+02 0.  0.
          5    1    4    4  501    0  0.31218203718E+02  0.52821483412E+01 -0.72540746263E+02  0.79288884485E+02  0.47000000000E+01 0.  1.
         -5    1    4    4    0  501 -0.23934501389E+02  0.54029093301E+01 -0.12877818339E+03  0.13117912297E+03  0.47000000000E+01 0.  1.
         12    1    5    5    0    0 -0.32655302239E+02 -0.73156353299E+01 -0.12650492537E+03  0.13085634653E+03  0.00000000000E+00 0. -1.
        -12    1    5    5    0    0  0.25371599910E+02 -0.33694223414E+01 -0.17194957146E+03  0.17384397089E+03  0.00000000000E+00 0. -1.
<mgrwt>
<rscale>  0 0.12499970E+03</rscale>
<asrwt>0</asrwt>
<pdfrwt beam="1">  1       21 0.11842230E-02 0.12499970E+03</pdfrwt>
<pdfrwt beam="2">  1       21 0.78072437E-01 0.12499970E+03</pdfrwt>
<totfact> 0.41233536E+06</totfact>
</mgrwt>
</event>
<event>
 9    1  0.4458519E-002  0.1250010E+03  0.7818608E-02  0.1235068E+00
         21   -1    0    0  503  502  0.00000000000E+00  0.00000000000E+00  0.13780605813E+02  0.13780605813E+02  0.00000000000E+00 0.  1.
         21   -1    0    0  502  503 -0.00000000000E+00 -0.00000000000E+00 -0.28346452564E+03  0.28346452564E+03  0.00000000000E+00 0.  1.
         25    2    1    2    0    0 -0.26645352591E-14  0.00000000000E+00 -0.26968391983E+03  0.29724513145E+03  0.12500100623E+03 0.  0.
    9000006    2    3    3    0    0 -0.44318782287E+01 -0.65489433305E+01 -0.97692324001E+02  0.11491662265E+03  0.59995914779E+02 0.  0.
    9000007    2    3    3    0    0  0.44318782287E+01  0.65489433305E+01 -0.17199159582E+03  0.18232850880E+03  0.60000382352E+02 0.  0.
          5    1    4    4  501    0  0.68186637182E+01  0.24828338224E+02 -0.51383556049E+02  0.57665417593E+02  0.47000000000E+01 0. -1.
         -5    1    4    4    0  501 -0.11250541947E+02 -0.31377281554E+02 -0.46308767952E+02  0.57251205062E+02  0.47000000000E+01 0. -1.
         12    1    5    5    0    0 -0.11663320000E+02  0.29917321535E+02 -0.94344692604E+02  0.99659420949E+02  0.00000000000E+00 0. -1.
        -12    1    5    5    0    0  0.16095198229E+02 -0.23368378205E+02 -0.77646903220E+02  0.82669087848E+02  0.00000000000E+00 0. -1.
<mgrwt>
<rscale>  0 0.12500101E+03</rscale>
<asrwt>0</asrwt>
<pdfrwt beam="1">  1       21 0.21200933E-02 0.12500101E+03</pdfrwt>
<pdfrwt beam="2">  1       21 0.43609926E-01 0.12500101E+03</pdfrwt>
<totfact> 0.55684486E+06</totfact>
</mgrwt>
</event>
<event>
 9    1  0.4458519E-002  0.1249940E+03  0.7818608E-02  0.1235079E+00
         21   -1    0    0  503  502  0.00000000000E+00  0.00000000000E+00  0.48666462155E+01  0.48666462155E+01  0.00000000000E+00 0. -1.
         21   -1    0    0  502  503 -0.00000000000E+00 -0.00000000000E+00 -0.80257979630E+03  0.80257979630E+03  0.00000000000E+00 0. -1.
         25    2    1    2    0    0 -0.17763568394E-14  0.00000000000E+00 -0.79771315009E+03  0.80744644252E+03  0.12499395071E+03 0.  0.
    9000006    2    3    3    0    0 -0.11393313195E+02  0.10974808458E+02 -0.35066901451E+03  0.35611650019E+03  0.59999583002E+02 0.  0.
    9000007    2    3    3    0    0  0.11393313195E+02 -0.10974808458E+02 -0.44704413557E+03  0.45132994233E+03  0.60000030718E+02 0.  0.
          5    1    4    4  501    0  0.20312194385E+02  0.14385837478E+02 -0.91175648216E+02  0.94628887705E+02  0.47000000000E+01 0.  1.
         -5    1    4    4    0  501 -0.31705507581E+02 -0.34110290194E+01 -0.25949336630E+03  0.26148761248E+03  0.47000000000E+01 0.  1.
         12    1    5    5    0    0  0.51369509066E+01  0.20547038051E+02 -0.30323722368E+03  0.30397595770E+03  0.00000000000E+00 0. -1.
        -12    1    5    5    0    0  0.62563622889E+01 -0.31521846510E+02 -0.14380691189E+03  0.14735398462E+03  0.00000000000E+00 0. -1.
<mgrwt>
<rscale>  0 0.12499395E+03</rscale>
<asrwt>0</asrwt>
<pdfrwt beam="1">  1       21 0.74871519E-03 0.12499395E+03</pdfrwt>
<pdfrwt beam="2">  1       21 0.12347375E+00 0.12499395E+03</pdfrwt>
<totfact> 0.29121950E+06</totfact>
</mgrwt>
</event>
<event>
 9    1  0.4458519E-002  0.1250011E+03  0.7818608E-02  0.1235068E+00
         21   -1    0    0  503  502  0.00000000000E+00  0.00000000000E+00  0.56701888578E+03  0.56701888578E+03  0.00000000000E+00 0.  1.
         21   -1    0    0  502  503 -0.00000000000E+00 -0.00000000000E+00 -0.68892175501E+01  0.68892175501E+01  0.00000000000E+00 0.  1.
         25    2    1    2    0    0  0.00000000000E+00  0.17763568394E-14  0.56012966823E+03  0.57390810334E+03  0.12500106334E+03 0.  0.
    9000006    2    3    3    0    0 -0.13899562088E+02  0.10610037387E+02  0.28340347308E+03  0.29021250750E+03  0.60000001954E+02 0.  0.
    9000007    2    3    3    0    0  0.13899562088E+02 -0.10610037387E+02  0.27672619515E+03  0.28369559584E+03  0.60000277444E+02 0.  0.
          5    1    4    4  501    0  0.62964304095E+01 -0.26254549530E+01  0.31210517625E+01  0.88526275035E+01  0.47000000000E+01 0.  1.
         -5    1    4    4    0  501 -0.20195992497E+02  0.13235492340E+02  0.28028242132E+03  0.28135988000E+03  0.47000000000E+01 0.  1.
         12    1    5    5    0    0  0.41332305544E+01  0.67957666450E+01  0.19421477455E+01  0.81876722562E+01  0.00000000000E+00 0.  1.
        -12    1    5    5    0    0  0.97663315334E+01 -0.17405804032E+02  0.27478404741E+03  0.27550792358E+03  0.00000000000E+00 0.  1.
<mgrwt>
<rscale>  0 0.12500106E+03</rscale>
<asrwt>0</asrwt>
<pdfrwt beam="1">  1       21 0.87233638E-01 0.12500106E+03</pdfrwt>
<pdfrwt beam="2">  1       21 0.10598801E-02 0.12500106E+03</pdfrwt>
<totfact> 0.38298829E+06</totfact>
</mgrwt>
</event>
<event>
 9    1  0.4458519E-002  0.1250020E+03  0.7818608E-02  0.1235066E+00
         21   -1    0    0  503  502  0.00000000000E+00  0.00000000000E+00  0.19000195722E+03  0.19000195722E+03  0.00000000000E+00 0. -1.
         21   -1    0    0  502  503 -0.00000000000E+00 -0.00000000000E+00 -0.20559666639E+02  0.20559666639E+02  0.00000000000E+00 0. -1.
         25    2    1    2    0    0  0.00000000000E+00  0.00000000000E+00  0.16944229058E+03  0.21056162386E+03  0.12500203040E+03 0.  0.
    9000006    2    3    3    0    0 -0.10130791670E+02  0.79881130717E+01  0.10464536239E+03  0.12131440271E+03  0.60000746214E+02 0.  0.
    9000007    2    3    3    0    0  0.10130791670E+02 -0.79881130717E+01  0.64796928196E+02  0.89247221147E+02  0.59999847404E+02 0.  0.
          5    1    4    4  501    0  0.15456442591E+02 -0.13468024801E+02  0.69477330152E+02  0.72591175184E+02  0.47000000000E+01 0.  1.
         -5    1    4    4    0  501 -0.25587234261E+02  0.21456137872E+02  0.35168032234E+02  0.48723227528E+02  0.47000000000E+01 0.  1.
         12    1    5    5    0    0 -0.14813426910E+02  0.45814946284E+00 -0.41925440704E+01  0.15402108411E+02  0.00000000000E+00 0.  1.
        -12    1    5    5    0    0  0.24944218580E+02 -0.84462625345E+01  0.68989472266E+02  0.73845112735E+02  0.00000000000E+00 0.  1.
<mgrwt>
<rscale>  0 0.12500203E+03</rscale>
<asrwt>0</asrwt>
<pdfrwt beam="1">  1       21 0.29231069E-01 0.12500203E+03</pdfrwt>
<pdfrwt beam="2">  1       21 0.31630258E-02 0.12500203E+03</pdfrwt>
<totfact> 0.63797219E+06</totfact>
</mgrwt>
</event>
<event>
 9    1  0.4458519E-002  0.1250031E+03  0.7818608E-02  0.1235064E+00
         21   -1    0    0  503  502  0.00000000000E+00  0.00000000000E+00  0.16167383785E+02  0.16167383785E+02  0.00000000000E+00 0.  1.
         21   -1    0    0  502  503 -0.00000000000E+00 -0.00000000000E+00 -0.24162514383E+03  0.24162514383E+03  0.00000000000E+00 0.  1.
         25    2    1    2    0    0  0.35527136788E-14  0.53290705182E-14 -0.22545776004E+03  0.25779252761E+03  0.12500314288E+03 0.  0.
    9000006    2    3    3    0    0 -0.38376675955E+01  0.15550567349E+02 -0.98157059633E+02  0.11615203471E+03  0.59999491439E+02 0.  0.
    9000007    2    3    3    0    0  0.38376675955E+01 -0.15550567349E+02 -0.12730070041E+03  0.14164049291E+03  0.60000108904E+02 0.  0.
          5    1    4    4  501    0 -0.18939990389E+02  0.32994832164E+02 -0.65463302816E+02  0.75861163984E+02  0.47000000000E+01 0.  1.
         -5    1    4    4    0  501  0.15102322793E+02 -0.17444264815E+02 -0.32693756817E+02  0.40290870721E+02  0.47000000000E+01 0.  1.
         12    1    5    5    0    0  0.18117339808E+02 -0.14395450473E+02 -0.13192779180E+02  0.26636749399E+02  0.00000000000E+00 0.  1.
        -12    1    5    5    0    0 -0.14279672213E+02 -0.11551168768E+01 -0.11410792123E+03  0.11500374351E+03  0.00000000000E+00 0.  1.
<mgrwt>
<rscale>  0 0.12500314E+03</rscale>
<asrwt>0</asrwt>
<pdfrwt beam="1">  1       21 0.24872896E-02 0.12500314E+03</pdfrwt>
<pdfrwt beam="2">  1       21 0.37173102E-01 0.12500314E+03</pdfrwt>
<totfact> 0.59147508E+06</totfact>
</mgrwt>
</event>
<event>
 9    1  0.4458519E-002  0.1250007E+03  0.7818608E-02  0.1235068E+00
         21   -1    0    0  503  502  0.00000000000E+00  0.00000000000E+00  0.12897551725E+02  0.12897551725E+02  0.00000000000E+00 0. -1.
         21   -1    0    0  502  503 -0.00000000000E+00 -0.00000000000E+00 -0.30287097347E+03  0.30287097347E+03  0.00000000000E+00 0. -1.
         25    2    1    2    0    0 -0.17763568394E-14  0.00000000000E+00 -0.28997342174E+03  0.31576852519E+03  0.12500070474E+03 0.  0.
    9000006    2    3    3    0    0 -0.12156112222E+02 -0.14160404454E+00 -0.17670660018E+03  0.18701357891E+03  0.60008874616E+02 0.  0.
    9000007    2    3    3    0    0  0.12156112222E+02  0.14160404454E+00 -0.11326682156E+03  0.12875494628E+03  0.60005601486E+02 0.  0.
          5    1    4    4  501    0 -0.31642413738E+02 -0.94540383508E+01 -0.64119038852E+02  0.72276983416E+02  0.47000000000E+01 0. -1.
         -5    1    4    4    0  501  0.19486301516E+02  0.93124343063E+01 -0.11258756133E+03  0.11473659549E+03  0.47000000000E+01 0. -1.
         12    1    5    5    0    0  0.18042620482E+02 -0.19304418769E+02 -0.10231871305E+03  0.10567552119E+03  0.00000000000E+00 0. -1.
        -12    1    5    5    0    0 -0.58865082596E+01  0.19446022814E+02 -0.10948108509E+02  0.23079425094E+02  0.00000000000E+00 0. -1.
<mgrwt>
<rscale>  0 0.12500070E+03</rscale>
<asrwt>0</asrwt>
<pdfrwt beam="1">  1       21 0.19842385E-02 0.12500070E+03</pdfrwt>
<pdfrwt beam="2">  1       21 0.46595539E-01 0.12500070E+03</pdfrwt>
<totfact> 0.54169418E+06</totfact>
</mgrwt>
</event>
<event>
 9    1  0.4458519E-002  0.1249942E+03  0.7818608E-02  0.1235078E+00
         21   -1    0    0  503  502  0.00000000000E+00  0.00000000000E+00  0.60211650815E+02  0.60211650815E+02  0.00000000000E+00 0.  1.
         21   -1    0    0  502  503 -0.00000000000E+00 -0.00000000000E+00 -0.64869310771E+02  0.64869310771E+02  0.00000000000E+00 0.  1.
         25    2    1    2    0    0  0.00000000000E+00  0.00000000000E+00 -0.46576599563E+01  0.12508096159E+03  0.12499421249E+03 0.  0.
    9000006    2    3    3    0    0  0.13343014102E+02  0.68442100490E+01  0.67074647248E+01  0.62207112484E+02  0.59998796021E+02 0.  0.
    9000007    2    3    3    0    0 -0.13343014102E+02 -0.68442100490E+01 -0.11365124681E+02  0.62873849102E+02  0.59992296217E+02 0.  0.
          5    1    4    4  501    0  0.54826083946E+01  0.14890013742E+02  0.30936230792E+02  0.35084353773E+02  0.47000000000E+01 0.  1.
         -5    1    4    4    0  501  0.78604057075E+01 -0.80458036932E+01 -0.24228766067E+02  0.27122758711E+02  0.47000000000E+01 0.  1.
         12    1    5    5    0    0 -0.26837336121E+02 -0.21905241393E+02  0.72450110757E+01  0.35391699536E+02  0.00000000000E+00 0. -1.
        -12    1    5    5    0    0  0.13494322019E+02  0.15061031344E+02 -0.18610135757E+02  0.27482149566E+02  0.00000000000E+00 0. -1.
<mgrwt>
<rscale>  0 0.12499421E+03</rscale>
<asrwt>0</asrwt>
<pdfrwt beam="1">  1       21 0.92633309E-02 0.12499421E+03</pdfrwt>
<pdfrwt beam="2">  1       21 0.99798940E-02 0.12499421E+03</pdfrwt>
<totfact> 0.74043602E+06</totfact>
</mgrwt>
</event>
<event>
 9    1  0.4458519E-002  0.1250010E+03  0.7818608E-02  0.1235068E+00
         21   -1    0    0  503  502  0.00000000000E+00  0.00000000000E+00  0.18053945583E+02  0.18053945583E+02  0.00000000000E+00 0. -1.
         21   -1    0    0  502  503 -0.00000000000E+00 -0.00000000000E+00 -0.21636891249E+03  0.21636891249E+03  0.00000000000E+00 0. -1.
         25    2    1    2    0    0  0.88817841970E-15 -0.35527136788E-14 -0.19831496691E+03  0.23442285808E+03  0.12500100115E+03 0.  0.
    9000006    2    3    3    0    0 -0.17046714025E+01  0.10804482697E+02 -0.12475744941E+03  0.13886752450E+03  0.60001045217E+02 0.  0.
    9000007    2    3    3    0    0  0.17046714025E+01 -0.10804482697E+02 -0.73557517501E+02  0.95555333575E+02  0.60003921894E+02 0.  0.
          5    1    4    4  501    0 -0.13580216464E+02  0.13974666984E+02 -0.12408217983E+03  0.12569085467E+03  0.47000000000E+01 0. -1.
         -5    1    4    4    0  501  0.11875545061E+02 -0.31701842871E+01 -0.67526958293E+00  0.13176669834E+02  0.47000000000E+01 0. -1.
         12    1    5    5    0    0 -0.12776405114E+01 -0.35649172110E+02 -0.47810587342E+02  0.59651890996E+02  0.00000000000E+00 0.  1.
        -12    1    5    5    0    0  0.29823119139E+01  0.24844689413E+02 -0.25746930159E+02  0.35903442578E+02  0.00000000000E+00 0.  1.
<mgrwt>
<rscale>  0 0.12500100E+03</rscale>
<asrwt>0</asrwt>
<pdfrwt beam="1">  1       21 0.27775302E-02 0.12500100E+03</pdfrwt>
<pdfrwt beam="2">  1       21 0.33287524E-01 0.12500100E+03</pdfrwt>
<totfact> 0.61375013E+06</totfact>
</mgrwt>
</event>
<event>
 9    1  0.4458519E-002  0.1249997E+03  0.7818608E-02  0.1235070E+00
         21   -1    0    0  503  502  0.00000000000E+00  0.00000000000E+00  0.96732940395E+03  0.96732940395E+03  0.00000000000E+00 0.  1.
         21   -1    0    0  502  503 -0.00000000000E+00 -0.00000000000E+00 -0.40381609326E+01  0.40381609326E+01  0.00000000000E+00 0.  1.
         25    2    1    2    0    0  0.35527136788E-14  0.00000000000E+00  0.96329124302E+03  0.97136756488E+03  0.12499970893E+03 0.  0.
    9000006    2    3    3    0    0  0.11060262217E+02  0.97787271207E+01  0.40865491320E+03  0.41329992833E+03  0.60000331436E+02 0.  0.
    9000007    2    3    3    0    0 -0.11060262217E+02 -0.97787271207E+01  0.55463632982E+03  0.55806763656E+03  0.60000630890E+02 0.  0.
          5    1    4    4  501    0 -0.13475535921E+02  0.15993978755E+02  0.32657237426E+03  0.32727511830E+03  0.47000000000E+01 0. -1.
         -5    1    4    4    0  501  0.24535798138E+02 -0.62152516343E+01  0.82082538933E+02  0.86024810031E+02  0.47000000000E+01 0. -1.
         12    1    5    5    0    0  0.13482896663E+02  0.12827741554E+02  0.75089878242E+02  0.77361678305E+02  0.00000000000E+00 0. -1.
        -12    1    5    5    0    0 -0.24543158881E+02 -0.22606468674E+02  0.47954645158E+03  0.48070595825E+03  0.00000000000E+00 0. -1.
<mgrwt>
<rscale>  0 0.12499971E+03</rscale>
<asrwt>0</asrwt>
<pdfrwt beam="1">  1       21 0.14881972E+00 0.12499971E+03</pdfrwt>
<pdfrwt beam="2">  1       21 0.62125630E-03 0.12499971E+03</pdfrwt>
<totfact> 0.24348119E+06</totfact>
</mgrwt>
</event>
<event>
 9    1  0.4458519E-002  0.1249995E+03  0.7818608E-02  0.1235070E+00
         21   -1    0    0  503  502  0.00000000000E+00  0.00000000000E+00  0.25563166257E+03  0.25563166257E+03  0.00000000000E+00 0. -1.
         21   -1    0    0  502  503 -0.00000000000E+00 -0.00000000000E+00 -0.15280641271E+02  0.15280641271E+02  0.00000000000E+00 0. -1.
         25    2    1    2    0    0  0.26645352591E-14  0.00000000000E+00  0.24035102130E+03  0.27091230384E+03  0.12499945173E+03 0.  0.
    9000006    2    3    3    0    0 -0.63638343447E+01  0.15065984359E+02  0.10665378197E+03  0.12345921994E+03  0.59997229157E+02 0.  0.
    9000007    2    3    3    0    0  0.63638343447E+01 -0.15065984359E+02  0.13369723933E+03  0.14745308390E+03  0.59999815638E+02 0.  0.
          5    1    4    4  501    0 -0.14338356043E+02  0.28135536569E+01  0.10700401881E+03  0.10809928113E+03  0.47000000000E+01 0. -1.
         -5    1    4    4    0  501  0.79745216988E+01  0.12252430702E+02 -0.35023684081E+00  0.15359938811E+02  0.47000000000E+01 0. -1.
         12    1    5    5    0    0 -0.26085035946E+02 -0.48944143108E-01  0.64211942880E+02  0.69308045018E+02  0.00000000000E+00 0.  1.
        -12    1    5    5    0    0  0.32448870291E+02 -0.15017040215E+02  0.69485296449E+02  0.78145038887E+02  0.00000000000E+00 0.  1.
<mgrwt>
<rscale>  0 0.12499945E+03</rscale>
<asrwt>0</asrwt>
<pdfrwt beam="1">  1       21 0.39327945E-01 0.12499945E+03</pdfrwt>
<pdfrwt beam="2">  1       21 0.23508681E-02 0.12499945E+03</pdfrwt>
<totfact> 0.57964106E+06</totfact>
</mgrwt>
</event>
<event>
 9    1  0.4458519E-002  0.1249974E+03  0.7818608E-02  0.1235073E+00
         21   -1    0    0  503  502  0.00000000000E+00  0.00000000000E+00  0.27882680964E+02  0.27882680964E+02  0.00000000000E+00 0. -1.
         21   -1    0    0  502  503 -0.00000000000E+00 -0.00000000000E+00 -0.14009014418E+03  0.14009014418E+03  0.00000000000E+00 0. -1.
         25    2    1    2    0    0  0.88817841970E-15  0.00000000000E+00 -0.11220746322E+03  0.16797282515E+03  0.12499742072E+03 0.  0.
    9000006    2    3    3    0    0  0.61136354722E+01  0.78974921853E+01 -0.75407996364E+02  0.96881587567E+02  0.59999409767E+02 0.  0.
    9000007    2    3    3    0    0 -0.61136354722E+01 -0.78974921853E+01 -0.36799466856E+02  0.71091237580E+02  0.60000136485E+02 0.  0.
          5    1    4    4  501    0  0.17534364876E+01 -0.25660407628E+02 -0.26546053288E+02  0.37260085940E+02  0.47000000000E+01 0. -1.
         -5    1    4    4    0  501  0.43601989846E+01  0.33557899813E+02 -0.48861943076E+02  0.59621501627E+02  0.47000000000E+01 0. -1.
         12    1    5    5    0    0  0.17082916163E+02 -0.23447087027E+02 -0.62020879379E+01  0.29665768311E+02  0.00000000000E+00 0. -1.
        -12    1    5    5    0    0 -0.23196551635E+02  0.15549594842E+02 -0.30597378918E+02  0.41425469269E+02  0.00000000000E+00 0. -1.
<mgrwt>
<rscale>  0 0.12499742E+03</rscale>
<asrwt>0</asrwt>
<pdfrwt beam="1">  1       21 0.42896432E-02 0.12499742E+03</pdfrwt>
<pdfrwt beam="2">  1       21 0.21552330E-01 0.12499742E+03</pdfrwt>
<totfact> 0.68562680E+06</totfact>
</mgrwt>
</event>
<event>
 9    1  0.4458519E-002  0.1250058E+03  0.7818608E-02  0.1235060E+00
         21   -1    0    0  503  502  0.00000000000E+00  0.00000000000E+00  0.10851441001E+04  0.10851441001E+04  0.00000000000E+00 0.  1.
         21   -1    0    0  502  503 -0.00000000000E+00 -0.00000000000E+00 -0.36000878429E+01  0.36000878429E+01  0.00000000000E+00 0.  1.
         25    2    1    2    0    0  0.17763568394E-14  0.00000000000E+00  0.10815440123E+04  0.10887441880E+04  0.12500582519E+03 0.  0.
    9000006    2    3    3    0    0 -0.15623214838E+01 -0.13668700861E+02  0.63495737444E+03  0.63793492390E+03  0.60006879143E+02 0.  0.
    9000007    2    3    3    0    0  0.15623214838E+01  0.13668700861E+02  0.44658663782E+03  0.45080926405E+03  0.60000776979E+02 0.  0.
          5    1    4    4  501    0  0.26052704937E+02  0.59885144015E+01  0.25553965532E+03  0.25697706353E+03  0.47000000000E+01 0. -1.
         -5    1    4    4    0  501 -0.27615026421E+02 -0.19657215263E+02  0.37941771912E+03  0.38095786037E+03  0.47000000000E+01 0. -1.
         12    1    5    5    0    0  0.74034040518E+01  0.30029617191E+02  0.12556995192E+03  0.12932285616E+03  0.00000000000E+00 0. -1.
        -12    1    5    5    0    0 -0.58410825679E+01 -0.16360916330E+02  0.32101668591E+03  0.32148640789E+03  0.00000000000E+00 0. -1.
<mgrwt>
<rscale>  0 0.12500583E+03</rscale>
<asrwt>0</asrwt>
<pdfrwt beam="1">  1       21 0.16694499E+00 0.12500583E+03</pdfrwt>
<pdfrwt beam="2">  1       21 0.55386053E-03 0.12500583E+03</pdfrwt>
<totfact> 0.21500419E+06</totfact>
</mgrwt>
</event>
<event>
 9    1  0.4458519E-002  0.1249988E+03  0.7818608E-02  0.1235071E+00
         21   -1    0    0  503  502  0.00000000000E+00  0.00000000000E+00  0.79548390375E+01  0.79548390375E+01  0.00000000000E+00 0. -1.
         21   -1    0    0  502  503 -0.00000000000E+00 -0.00000000000E+00 -0.49104411220E+03  0.49104411220E+03  0.00000000000E+00 0. -1.
         25    2    1    2    0    0 -0.71054273576E-14  0.17763568394E-14 -0.48308927317E+03  0.49899895124E+03  0.12499882996E+03 0.  0.
    9000006    2    3    3    0    0 -0.10508511529E+02  0.13442553869E+02 -0.22607708094E+03  0.23452501092E+03  0.60000026280E+02 0.  0.
    9000007    2    3    3    0    0  0.10508511529E+02 -0.13442553869E+02 -0.25701219223E+03  0.26447394032E+03  0.60000559037E+02 0.  0.
          5    1    4    4  501    0 -0.26462942404E+02  0.19750316432E+02 -0.71146109709E+02  0.78576212982E+02  0.47000000000E+01 0. -1.
         -5    1    4    4    0  501  0.15954430875E+02 -0.63077625630E+01 -0.15493097123E+03  0.15594879794E+03  0.47000000000E+01 0. -1.
         12    1    5    5    0    0  0.34681338137E+02 -0.15669665585E+02 -0.15185533562E+03  0.15655151417E+03  0.00000000000E+00 0.  1.
        -12    1    5    5    0    0 -0.24172826608E+02  0.22271117157E+01 -0.10515685661E+03  0.10792242614E+03  0.00000000000E+00 0.  1.
<mgrwt>
<rscale>  0 0.12499883E+03</rscale>
<asrwt>0</asrwt>
<pdfrwt beam="1">  1       21 0.12238214E-02 0.12499883E+03</pdfrwt>
<pdfrwt beam="2">  1       21 0.75545247E-01 0.12499883E+03</pdfrwt>
<totfact> 0.42099638E+06</totfact>
</mgrwt>
</event>
<event>
 9    1  0.4458519E-002  0.1249958E+03  0.7818608E-02  0.1235076E+00
         21   -1    0    0  503  502  0.00000000000E+00  0.00000000000E+00  0.15891313254E+03  0.15891313254E+03  0.00000000000E+00 0.  1.
         21   -1    0    0  502  503 -0.00000000000E+00 -0.00000000000E+00 -0.24579380968E+02  0.24579380968E+02  0.00000000000E+00 0.  1.
         25    2    1    2    0    0 -0.35527136788E-14 -0.13322676296E-14  0.13433375157E+03  0.18349251351E+03  0.12499578274E+03 0.  0.
    9000006    2    3    3    0    0 -0.17183185972E+02 -0.29398719126E+01  0.69321501368E+02  0.93323454633E+02  0.59999099207E+02 0.  0.
    9000007    2    3    3    0    0  0.17183185972E+02  0.29398719126E+01  0.65012250206E+02  0.90169058877E+02  0.59999681456E+02 0.  0.
          5    1    4    4  501    0 -0.24396404898E+02  0.23757870420E+02  0.40074096450E+02  0.52798145660E+02  0.47000000000E+01 0.  1.
         -5    1    4    4    0  501  0.72132189255E+01 -0.26697742333E+02  0.29247404919E+02  0.40525308974E+02  0.47000000000E+01 0.  1.
         12    1    5    5    0    0  0.35244628861E+02  0.25694706589E+01  0.17695728949E+02  0.39521195149E+02  0.00000000000E+00 0.  1.
        -12    1    5    5    0    0 -0.18061442888E+02  0.37040125362E+00  0.47316521257E+02  0.50647863727E+02  0.00000000000E+00 0.  1.
<mgrwt>
<rscale>  0 0.12499578E+03</rscale>
<asrwt>0</asrwt>
<pdfrwt beam="1">  1       21 0.24448174E-01 0.12499578E+03</pdfrwt>
<pdfrwt beam="2">  1       21 0.37814433E-02 0.12499578E+03</pdfrwt>
<totfact> 0.66760267E+06</totfact>
</mgrwt>
</event>
<event>
 9    1  0.4458519E-002  0.1250002E+03  0.7818608E-02  0.1235069E+00
         21   -1    0    0  503  502  0.00000000000E+00  0.00000000000E+00  0.58593781476E+02  0.58593781476E+02  0.00000000000E+00 0.  1.
         21   -1    0    0  502  503 -0.00000000000E+00 -0.00000000000E+00 -0.66666822310E+02  0.66666822310E+02  0.00000000000E+00 0.  1.
         25    2    1    2    0    0  0.17763568394E-14 -0.17763568394E-14 -0.80730408338E+01  0.12526060379E+03  0.12500017949E+03 0.  0.
    9000006    2    3    3    0    0  0.28724522388E+01  0.34128432196E+01  0.12913474380E+02  0.61539496951E+02  0.60003778079E+02 0.  0.
    9000007    2    3    3    0    0 -0.28724522388E+01 -0.34128432196E+01 -0.20986515214E+02  0.63721106835E+02  0.60000392955E+02 0.  0.
          5    1    4    4  501    0 -0.12935435070E+02  0.27386507378E+02  0.29908211179E+01  0.30795799677E+02  0.47000000000E+01 0. -1.
         -5    1    4    4    0  501  0.15807887309E+02 -0.23973664158E+02  0.99226532619E+01  0.30743697274E+02  0.47000000000E+01 0. -1.
         12    1    5    5    0    0  0.23242082654E+02  0.13646659611E+02 -0.17946177408E+02  0.32380410871E+02  0.00000000000E+00 0. -1.
        -12    1    5    5    0    0 -0.26114534893E+02 -0.17059502830E+02 -0.30403378058E+01  0.31340695963E+02  0.00000000000E+00 0. -1.
<mgrwt>
<rscale>  0 0.12500018E+03</rscale>
<asrwt>0</asrwt>
<pdfrwt beam="1">  1       21 0.90144279E-02 0.12500018E+03</pdfrwt>
<pdfrwt beam="2">  1       21 0.10256434E-01 0.12500018E+03</pdfrwt>
<totfact> 0.74008050E+06</totfact>
</mgrwt>
</event>
<event>
 8    1  0.4458519E-002  0.1249382E+03  0.7818608E-02  0.1235166E+00
         21   -1    0    0  503  502  0.00000000000E+00  0.00000000000E+00  0.89636020007E+02  0.89636020007E+02  0.00000000000E+00 0.  1.
         21   -1    0    0  502  503 -0.00000000000E+00 -0.00000000000E+00 -0.43535909603E+02  0.43535909603E+02  0.00000000000E+00 0.  1.
    9000006    2    1    2    0    0 -0.97357810361E+01 -0.14371128219E+02  0.24151858541E+02  0.66967914912E+02  0.60000621646E+02 0.  0.
    9000007    2    1    2    0    0  0.97357810361E+01  0.14371128219E+02  0.21948251863E+02  0.66204014699E+02  0.59999425361E+02 0.  0.
          5    1    3    3  501    0 -0.89694386037E+01  0.74468504053E+01  0.38449148616E+02  0.40451618498E+02  0.47000000000E+01 0. -1.
         -5    1    3    3    0  501 -0.76634243244E+00 -0.21817978625E+02 -0.14297290075E+02  0.26516296413E+02  0.47000000000E+01 0. -1.
         12    1    4    4    0    0 -0.44590793426E+01  0.22533832766E+02 -0.13860835021E+02  0.26828711396E+02  0.00000000000E+00 0. -1.
        -12    1    4    4    0    0  0.14194860379E+02 -0.81627045469E+01  0.35809086884E+02  0.39375303302E+02  0.00000000000E+00 0. -1.
<mgrwt>
<rscale>  0 0.12493816E+03</rscale>
<asrwt>0</asrwt>
<pdfrwt beam="1">  1       21 0.13790157E-01 0.12493816E+03</pdfrwt>
<pdfrwt beam="2">  1       21 0.66978323E-02 0.12493816E+03</pdfrwt>
<totfact> 0.73054634E+06</totfact>
</mgrwt>
</event>
<event>
 9    1  0.4458519E-002  0.1249993E+03  0.7818608E-02  0.1235070E+00
         21   -1    0    0  503  502  0.00000000000E+00  0.00000000000E+00  0.23367350874E+02  0.23367350874E+02  0.00000000000E+00 0. -1.
         21   -1    0    0  502  503 -0.00000000000E+00 -0.00000000000E+00 -0.16716509832E+03  0.16716509832E+03  0.00000000000E+00 0. -1.
         25    2    1    2    0    0  0.00000000000E+00  0.88817841970E-15 -0.14379774745E+03  0.19053244920E+03  0.12499928810E+03 0.  0.
    9000006    2    3    3    0    0  0.64089819475E+01 -0.49489580671E+00 -0.96706210845E+02  0.11398835429E+03  0.59999447717E+02 0.  0.
    9000007    2    3    3    0    0 -0.64089819475E+01  0.49489580671E+00 -0.47091536605E+02  0.76544094908E+02  0.60000547281E+02 0.  0.
          5    1    4    4  501    0  0.31930835247E+02  0.11239771991E+01 -0.38586352272E+02  0.50317374196E+02  0.47000000000E+01 0.  1.
         -5    1    4    4    0  501 -0.25521853299E+02 -0.16188730058E+01 -0.58119858573E+02  0.63670980094E+02  0.47000000000E+01 0.  1.
         12    1    5    5    0    0  0.10883835766E+01  0.98397573146E+01 -0.58897637830E+02  0.59723840673E+02  0.00000000000E+00 0. -1.
        -12    1    5    5    0    0 -0.74973655242E+01 -0.93448615079E+01  0.11806101225E+02  0.16820254235E+02  0.00000000000E+00 0. -1.
<mgrwt>
<rscale>  0 0.12499929E+03</rscale>
<asrwt>0</asrwt>
<pdfrwt beam="1">  1       21 0.35949771E-02 0.12499929E+03</pdfrwt>
<pdfrwt beam="2">  1       21 0.25717707E-01 0.12499929E+03</pdfrwt>
<totfact> 0.65964526E+06</totfact>
</mgrwt>
</event>
<event>
 9    1  0.4458519E-002  0.1249922E+03  0.7818608E-02  0.1235081E+00
         21   -1    0    0  503  502  0.00000000000E+00  0.00000000000E+00  0.13858722858E+03  0.13858722858E+03  0.00000000000E+00 0. -1.
         21   -1    0    0  502  503 -0.00000000000E+00 -0.00000000000E+00 -0.28182701455E+02  0.28182701455E+02  0.00000000000E+00 0. -1.
         25    2    1    2    0    0  0.00000000000E+00 -0.17763568394E-14  0.11040452712E+03  0.16676993003E+03  0.12499219957E+03 0.  0.
    9000006    2    3    3    0    0  0.88703829541E+01  0.13441553947E+01  0.75229380407E+02  0.96643433262E+02  0.60000025573E+02 0.  0.
    9000007    2    3    3    0    0 -0.88703829541E+01 -0.13441553947E+01  0.35175146714E+02  0.70126496769E+02  0.59999534626E+02 0.  0.
          5    1    4    4  501    0 -0.21560236910E+02  0.14399517531E+02  0.41390944154E+02  0.49066181619E+02  0.47000000000E+01 0.  1.
         -5    1    4    4    0  501  0.30430619864E+02 -0.13055362136E+02  0.33838436253E+02  0.47577251643E+02  0.47000000000E+01 0.  1.
         12    1    5    5    0    0  0.46869888689E+00  0.15000694348E+02  0.46017197443E+02  0.48402716556E+02  0.00000000000E+00 0.  1.
        -12    1    5    5    0    0 -0.93390818410E+01 -0.16344849743E+02 -0.10842050729E+02  0.21723780213E+02  0.00000000000E+00 0.  1.
<mgrwt>
<rscale>  0 0.12499220E+03</rscale>
<asrwt>0</asrwt>
<pdfrwt beam="1">  1       21 0.21321112E-01 0.12499220E+03</pdfrwt>
<pdfrwt beam="2">  1       21 0.43358003E-02 0.12499220E+03</pdfrwt>
<totfact> 0.68715217E+06</totfact>
</mgrwt>
</event>
<event>
 9    1  0.4458519E-002  0.1249986E+03  0.7818608E-02  0.1235071E+00
         21   -1    0    0  503  502  0.00000000000E+00  0.00000000000E+00  0.56137844012E+01  0.56137844012E+01  0.00000000000E+00 0. -1.
         21   -1    0    0  502  503 -0.00000000000E+00 -0.00000000000E+00 -0.69581633712E+03  0.69581633712E+03  0.00000000000E+00 0. -1.
         25    2    1    2    0    0  0.00000000000E+00  0.00000000000E+00 -0.69020255272E+03  0.70143012152E+03  0.12499860638E+03 0.  0.
    9000006    2    3    3    0    0  0.30117191198E+01  0.11571689520E+02 -0.27332156058E+03  0.28008514372E+03  0.60000315039E+02 0.  0.
    9000007    2    3    3    0    0 -0.30117191198E+01 -0.11571689520E+02 -0.41688099215E+03  0.42134497781E+03  0.59990451412E+02 0.  0.
          5    1    4    4  501    0 -0.16247936843E+02  0.28727361765E+02 -0.18399656030E+03  0.18699219494E+03  0.47000000000E+01 0.  1.
         -5    1    4    4    0  501  0.19259655963E+02 -0.17155672245E+02 -0.89325000277E+02  0.93092948780E+02  0.47000000000E+01 0.  1.
         12    1    5    5    0    0  0.10498230621E+02  0.20642161347E+02 -0.10556848357E+03  0.10807875090E+03  0.00000000000E+00 0.  1.
        -12    1    5    5    0    0 -0.13509949741E+02 -0.32213850867E+02 -0.31131250857E+03  0.31326622691E+03  0.00000000000E+00 0.  1.
<mgrwt>
<rscale>  0 0.12499861E+03</rscale>
<asrwt>0</asrwt>
<pdfrwt beam="1">  1       21 0.86365969E-03 0.12499861E+03</pdfrwt>
<pdfrwt beam="2">  1       21 0.10704860E+00 0.12499861E+03</pdfrwt>
<totfact> 0.32856228E+06</totfact>
</mgrwt>
</event>
<event>
 9    1  0.4458519E-002  0.1249549E+03  0.7818608E-02  0.1235140E+00
         21   -1    0    0  503  502  0.00000000000E+00  0.00000000000E+00  0.18735126973E+03  0.18735126973E+03  0.00000000000E+00 0.  1.
         21   -1    0    0  502  503 -0.00000000000E+00 -0.00000000000E+00 -0.20834823090E+02  0.20834823090E+02  0.00000000000E+00 0.  1.
         25    2    1    2    0    0  0.88817841970E-15 -0.17763568394E-14  0.16651644664E+03  0.20818609282E+03  0.12495488083E+03 0.  0.
    9000006    2    3    3    0    0  0.67646431035E+01  0.14284865761E+02  0.95439665872E+02  0.11383571935E+03  0.60000194931E+02 0.  0.
    9000007    2    3    3    0    0 -0.67646431035E+01 -0.14284865761E+02  0.71076780771E+02  0.94350373474E+02  0.60002220157E+02 0.  0.
          5    1    4    4  501    0  0.11437398152E+02 -0.24968319979E+00  0.97000094830E+02  0.97785401851E+02  0.47000000000E+01 0.  1.
         -5    1    4    4    0  501 -0.46727550490E+01  0.14534548961E+02 -0.15604289578E+01  0.16050317497E+02  0.47000000000E+01 0.  1.
         12    1    5    5    0    0 -0.14008377801E+02 -0.31923173807E+02  0.20837638073E+02  0.40614416591E+02  0.00000000000E+00 0.  1.
        -12    1    5    5    0    0  0.72437346979E+01  0.17638308046E+02  0.50239142698E+02  0.53735956883E+02  0.00000000000E+00 0.  1.
<mgrwt>
<rscale>  0 0.12495488E+03</rscale>
<asrwt>0</asrwt>
<pdfrwt beam="1">  1       21 0.28823271E-01 0.12495488E+03</pdfrwt>
<pdfrwt beam="2">  1       21 0.32053575E-02 0.12495488E+03</pdfrwt>
<totfact> 0.64124051E+06</totfact>
</mgrwt>
</event>
<event>
 9    1  0.4458519E-002  0.1250000E+03  0.7818608E-02  0.1235069E+00
         21   -1    0    0  503  502  0.00000000000E+00  0.00000000000E+00  0.21976668849E+03  0.21976668849E+03  0.00000000000E+00 0. -1.
         21   -1    0    0  502  503 -0.00000000000E+00 -0.00000000000E+00 -0.17774534459E+02  0.17774534459E+02  0.00000000000E+00 0. -1.
         25    2    1    2    0    0  0.00000000000E+00  0.35527136788E-14  0.20199215403E+03  0.23754122295E+03  0.12500000924E+03 0.  0.
    9000006    2    3    3    0    0 -0.92239890278E+01  0.21958486152E+01  0.73047617234E+02  0.95005274564E+02  0.60001200709E+02 0.  0.
    9000007    2    3    3    0    0  0.92239890278E+01 -0.21958486152E+01  0.12894453680E+03  0.14253594839E+03  0.59999160727E+02 0.  0.
          5    1    4    4  501    0 -0.10772405402E+02 -0.27514830968E+02  0.43625601280E+02  0.52899846204E+02  0.47000000000E+01 0.  1.
         -5    1    4    4    0  501  0.15484163743E+01  0.29710679583E+02  0.29422015955E+02  0.42105428360E+02  0.47000000000E+01 0.  1.
         12    1    5    5    0    0  0.11452279113E+02  0.28007476948E+02  0.58666778284E+02  0.66010335071E+02  0.00000000000E+00 0. -1.
        -12    1    5    5    0    0 -0.22282900849E+01 -0.30203325564E+02  0.70277758512E+02  0.76525613315E+02  0.00000000000E+00 0. -1.
<mgrwt>
<rscale>  0 0.12500001E+03</rscale>
<asrwt>0</asrwt>
<pdfrwt beam="1">  1       21 0.33810258E-01 0.12500001E+03</pdfrwt>
<pdfrwt beam="2">  1       21 0.27345439E-02 0.12500001E+03</pdfrwt>
<totfact> 0.61071394E+06</totfact>
</mgrwt>
</event>
<event>
 9    1  0.4458519E-002  0.1249970E+03  0.7818608E-02  0.1235074E+00
         21   -1    0    0  503  502  0.00000000000E+00  0.00000000000E+00  0.18818802901E+03  0.18818802901E+03  0.00000000000E+00 0. -1.
         21   -1    0    0  502  503 -0.00000000000E+00 -0.00000000000E+00 -0.20756157621E+02  0.20756157621E+02  0.00000000000E+00 0. -1.
         25    2    1    2    0    0  0.53290705182E-14  0.26645352591E-14  0.16743187139E+03  0.20894418663E+03  0.12499696624E+03 0.  0.
    9000006    2    3    3    0    0 -0.76884781474E+01  0.57809806500E+01  0.59291748897E+02  0.84900835766E+02  0.60000899935E+02 0.  0.
    9000007    2    3    3    0    0  0.76884781474E+01 -0.57809806500E+01  0.10814012249E+03  0.12404335086E+03  0.59999453063E+02 0.  0.
          5    1    4    4  501    0  0.25217619228E+02 -0.43320613841E+01  0.26051434212E+02  0.36816603589E+02  0.47000000000E+01 0. -1.
         -5    1    4    4    0  501 -0.32906097375E+02  0.10113042034E+02  0.33240314685E+02  0.48084232177E+02  0.47000000000E+01 0. -1.
         12    1    5    5    0    0  0.90541848535E+01  0.26651416884E+02  0.54687674039E+02  0.61506243399E+02  0.00000000000E+00 0. -1.
        -12    1    5    5    0    0 -0.13657067061E+01 -0.32432397534E+02  0.53452448452E+02  0.62537107465E+02  0.00000000000E+00 0. -1.
<mgrwt>
<rscale>  0 0.12499697E+03</rscale>
<asrwt>0</asrwt>
<pdfrwt beam="1">  1       21 0.28952003E-01 0.12499697E+03</pdfrwt>
<pdfrwt beam="2">  1       21 0.31932551E-02 0.12499697E+03</pdfrwt>
<totfact> 0.63975701E+06</totfact>
</mgrwt>
</event>
<event>
 8    1  0.4458519E-002  0.1249265E+03  0.7818608E-02  0.1235184E+00
         21   -1    0    0  503  502  0.00000000000E+00  0.00000000000E+00  0.10604248263E+03  0.10604248263E+03  0.00000000000E+00 0.  1.
         21   -1    0    0  502  503 -0.00000000000E+00 -0.00000000000E+00 -0.36793330470E+02  0.36793330470E+02  0.00000000000E+00 0.  1.
    9000006    2    1    2    0    0  0.63826193778E+01 -0.11296990851E+02  0.47826591407E+02  0.77818807939E+02  0.60000201592E+02 0.  0.
    9000007    2    1    2    0    0 -0.63826193778E+01  0.11296990851E+02  0.21422560749E+02  0.65017005156E+02  0.59999375146E+02 0.  0.
          5    1    3    3  501    0 -0.18038259759E+02 -0.56354087063E+00  0.47171834936E+02  0.50724435972E+02  0.47000000000E+01 0. -1.
         -5    1    3    3    0  501  0.24420879136E+02 -0.10733449981E+02  0.65475647078E+00  0.27094371968E+02  0.47000000000E+01 0. -1.
         12    1    4    4    0    0 -0.16331428357E+02 -0.21539133258E+02  0.10686247306E+02  0.29066229462E+02  0.00000000000E+00 0.  1.
        -12    1    4    4    0    0  0.99488089794E+01  0.32836124109E+02  0.10736313443E+02  0.35950775693E+02  0.00000000000E+00 0.  1.
<mgrwt>
<rscale>  0 0.12492648E+03</rscale>
<asrwt>0</asrwt>
<pdfrwt beam="1">  1       21 0.16314228E-01 0.12492648E+03</pdfrwt>
<pdfrwt beam="2">  1       21 0.56605124E-02 0.12492648E+03</pdfrwt>
<totfact> 0.71805612E+06</totfact>
</mgrwt>
</event>
<event>
 8    1  0.4458519E-002  0.1248887E+03  0.7818608E-02  0.1235243E+00
         21   -1    0    0  503  502  0.00000000000E+00  0.00000000000E+00  0.23781070371E+03  0.23781070371E+03  0.00000000000E+00 0. -1.
         21   -1    0    0  502  503 -0.00000000000E+00 -0.00000000000E+00 -0.16396650537E+02  0.16396650537E+02  0.00000000000E+00 0. -1.
    9000006    2    1    2    0    0  0.78606814494E+01  0.15213108235E+02  0.10572447106E+03  0.12276433899E+03  0.60001584737E+02 0.  0.
    9000007    2    1    2    0    0 -0.78606814494E+01 -0.15213108235E+02  0.11568958211E+03  0.13144301526E+03  0.59999648967E+02 0.  0.
          5    1    3    3  501    0  0.16485085419E+01  0.33036271318E+02  0.94668060838E+02  0.10039046043E+03  0.47000000000E+01 0.  1.
         -5    1    3    3    0  501  0.62121729075E+01 -0.17823163083E+02  0.11056410221E+02  0.22373878553E+02  0.47000000000E+01 0.  1.
         12    1    4    4    0    0  0.12378330108E+02  0.16647256081E+02  0.65090758215E+02  0.68316623133E+02  0.00000000000E+00 0. -1.
        -12    1    4    4    0    0 -0.20239011557E+02 -0.31860364316E+02  0.50598823897E+02  0.63126392126E+02  0.00000000000E+00 0. -1.
<mgrwt>
<rscale>  0 0.12488873E+03</rscale>
<asrwt>0</asrwt>
<pdfrwt beam="1">  1       21 0.36586260E-01 0.12488873E+03</pdfrwt>
<pdfrwt beam="2">  1       21 0.25225618E-02 0.12488873E+03</pdfrwt>
<totfact> 0.59651411E+06</totfact>
</mgrwt>
</event>
<event>
 9    1  0.4458519E-002  0.1249988E+03  0.7818608E-02  0.1235071E+00
         21   -1    0    0  503  502  0.00000000000E+00  0.00000000000E+00  0.15073989369E+02  0.15073989369E+02  0.00000000000E+00 0. -1.
         21   -1    0    0  502  503 -0.00000000000E+00 -0.00000000000E+00 -0.25913341696E+03  0.25913341696E+03  0.00000000000E+00 0. -1.
         25    2    1    2    0    0  0.17763568394E-14  0.35527136788E-14 -0.24405942759E+03  0.27420740632E+03  0.12499878995E+03 0.  0.
    9000006    2    3    3    0    0 -0.10875625927E+02 -0.12725109706E+02 -0.13324472843E+03  0.14708614155E+03  0.59999731039E+02 0.  0.
    9000007    2    3    3    0    0  0.10875625927E+02  0.12725109706E+02 -0.11081469915E+03  0.12712126477E+03  0.59997589558E+02 0.  0.
          5    1    4    4  501    0 -0.18941080975E+01 -0.11440255896E+02  0.90767693093E+00  0.12545157547E+02  0.47000000000E+01 0. -1.
         -5    1    4    4    0  501 -0.89815178297E+01 -0.12848538096E+01 -0.13415240536E+03  0.13454098400E+03  0.47000000000E+01 0. -1.
         12    1    5    5    0    0  0.46505687886E+01  0.36769583218E+02 -0.59257400279E+02  0.69893272409E+02  0.00000000000E+00 0.  1.
        -12    1    5    5    0    0  0.62250571386E+01 -0.24044473513E+02 -0.51557298874E+02  0.57227992364E+02  0.00000000000E+00 0.  1.
<mgrwt>
<rscale>  0 0.12499879E+03</rscale>
<asrwt>0</asrwt>
<pdfrwt beam="1">  1       21 0.23190755E-02 0.12499879E+03</pdfrwt>
<pdfrwt beam="2">  1       21 0.39866676E-01 0.12499879E+03</pdfrwt>
<totfact> 0.57671902E+06</totfact>
</mgrwt>
</event>
<event>
 9    1  0.4458519E-002  0.1250023E+03  0.7818608E-02  0.1235066E+00
         21   -1    0    0  503  502  0.00000000000E+00  0.00000000000E+00  0.53248816581E+01  0.53248816581E+01  0.00000000000E+00 0.  1.
         21   -1    0    0  502  503 -0.00000000000E+00 -0.00000000000E+00 -0.73361174572E+03  0.73361174572E+03  0.00000000000E+00 0.  1.
         25    2    1    2    0    0  0.35527136788E-14  0.00000000000E+00 -0.72828686407E+03  0.73893662738E+03  0.12500233164E+03 0.  0.
    9000006    2    3    3    0    0  0.12458994167E+02 -0.12260576653E+02 -0.35919440339E+03  0.36459053295E+03  0.60000741740E+02 0.  0.
    9000007    2    3    3    0    0 -0.12458994167E+02  0.12260576653E+02 -0.36909246067E+03  0.37434609444E+03  0.60001713465E+02 0.  0.
          5    1    4    4  501    0  0.29298931631E+02  0.12473834542E+02 -0.18926479011E+03  0.19198248545E+03  0.47000000000E+01 0.  1.
         -5    1    4    4    0  501 -0.16839937464E+02 -0.24734411195E+02 -0.16992961328E+03  0.17260804750E+03  0.47000000000E+01 0.  1.
         12    1    5    5    0    0 -0.48012297159E+00  0.29849824401E+02 -0.98665426999E+02  0.10308302004E+03  0.00000000000E+00 0. -1.
        -12    1    5    5    0    0 -0.11978871195E+02 -0.17589247748E+02 -0.27042703367E+03  0.27126307440E+03  0.00000000000E+00 0. -1.
<mgrwt>
<rscale>  0 0.12500233E+03</rscale>
<asrwt>0</asrwt>
<pdfrwt beam="1">  1       21 0.81921267E-03 0.12500233E+03</pdfrwt>
<pdfrwt beam="2">  1       21 0.11286333E+00 0.12500233E+03</pdfrwt>
<totfact> 0.31460040E+06</totfact>
</mgrwt>
</event>
<event>
 9    1  0.4458519E-002  0.1249821E+03  0.7818608E-02  0.1235097E+00
         21   -1    0    0  503  502  0.00000000000E+00  0.00000000000E+00  0.23176648980E+03  0.23176648980E+03  0.00000000000E+00 0.  1.
         21   -1    0    0  502  503 -0.00000000000E+00 -0.00000000000E+00 -0.16849430237E+02  0.16849430237E+02  0.00000000000E+00 0.  1.
         25    2    1    2    0    0  0.17763568394E-14 -0.17763568394E-14  0.21491705956E+03  0.24861592004E+03  0.12498213154E+03 0.  0.
    9000006    2    3    3    0    0  0.73502615101E+01  0.14119963766E+02  0.12176145286E+03  0.13667242318E+03  0.60000834455E+02 0.  0.
    9000007    2    3    3    0    0 -0.73502615101E+01 -0.14119963766E+02  0.93155606703E+02  0.11194349685E+03  0.59999830887E+02 0.  0.
          5    1    4    4  501    0  0.11320580436E+02  0.14879764997E+02  0.52285588238E+01  0.19974753444E+02  0.47000000000E+01 0. -1.
         -5    1    4    4    0  501 -0.39703189255E+01 -0.75980123080E+00  0.11653289404E+03  0.11669766974E+03  0.47000000000E+01 0. -1.
         12    1    5    5    0    0  0.10398405602E+02 -0.31612151339E+02  0.33163476078E+02  0.46981603814E+02  0.00000000000E+00 0. -1.
        -12    1    5    5    0    0 -0.17748667112E+02  0.17492187573E+02  0.59992130625E+02  0.64961893039E+02  0.00000000000E+00 0. -1.
<mgrwt>
<rscale>  0 0.12498213E+03</rscale>
<asrwt>0</asrwt>
<pdfrwt beam="1">  1       21 0.35656381E-01 0.12498213E+03</pdfrwt>
<pdfrwt beam="2">  1       21 0.25922202E-02 0.12498213E+03</pdfrwt>
<totfact> 0.60035784E+06</totfact>
</mgrwt>
</event>
<event>
 9    1  0.4458519E-002  0.1250005E+03  0.7818608E-02  0.1235069E+00
         21   -1    0    0  503  502  0.00000000000E+00  0.00000000000E+00  0.52141855813E+02  0.52141855813E+02  0.00000000000E+00 0.  1.
         21   -1    0    0  502  503 -0.00000000000E+00 -0.00000000000E+00 -0.74916383532E+02  0.74916383532E+02  0.00000000000E+00 0.  1.
         25    2    1    2    0    0  0.00000000000E+00  0.35527136788E-14 -0.22774527719E+02  0.12705823934E+03  0.12500046829E+03 0.  0.
    9000006    2    3    3    0    0 -0.25967119522E+01 -0.17208281265E+02 -0.13245681758E+02  0.63862371565E+02  0.60000721326E+02 0.  0.
    9000007    2    3    3    0    0  0.25967119522E+01  0.17208281265E+02 -0.95288459611E+01  0.63195867779E+02  0.60000424515E+02 0.  0.
          5    1    4    4  501    0 -0.13629829406E+02  0.67196417179E+01  0.17130603402E+02  0.23376770679E+02  0.47000000000E+01 0.  1.
         -5    1    4    4    0  501  0.11033117453E+02 -0.23927922983E+02 -0.30376285160E+02  0.40485600887E+02  0.47000000000E+01 0.  1.
         12    1    5    5    0    0  0.15577367148E+02  0.30951610186E+02 -0.21538680114E+02  0.40799157853E+02  0.00000000000E+00 0.  1.
        -12    1    5    5    0    0 -0.12980655196E+02 -0.13743328921E+02  0.12009834153E+02  0.22396709927E+02  0.00000000000E+00 0.  1.
<mgrwt>
<rscale>  0 0.12500047E+03</rscale>
<asrwt>0</asrwt>
<pdfrwt beam="1">  1       21 0.80218240E-02 0.12500047E+03</pdfrwt>
<pdfrwt beam="2">  1       21 0.11525597E-01 0.12500047E+03</pdfrwt>
<totfact> 0.73760328E+06</totfact>
</mgrwt>
</event>
<event>
 9    1  0.4458519E-002  0.1250083E+03  0.7818608E-02  0.1235056E+00
         21   -1    0    0  503  502  0.00000000000E+00  0.00000000000E+00  0.96078219118E+01  0.96078219118E+01  0.00000000000E+00 0.  1.
         21   -1    0    0  502  503 -0.00000000000E+00 -0.00000000000E+00 -0.40662367475E+03  0.40662367475E+03  0.00000000000E+00 0.  1.
         25    2    1    2    0    0 -0.17763568394E-14 -0.35527136788E-14 -0.39701585284E+03  0.41623149666E+03  0.12500828536E+03 0.  0.
    9000006    2    3    3    0    0 -0.17256869947E+01 -0.17389752215E+02 -0.19450599058E+03  0.20429890961E+03  0.60000688466E+02 0.  0.
    9000007    2    3    3    0    0  0.17256869947E+01  0.17389752215E+02 -0.20250986225E+03  0.21193258705E+03  0.59998297203E+02 0.  0.
          5    1    4    4  501    0 -0.13142611139E+02  0.15953719089E+01 -0.74973257569E+01  0.15923986077E+02  0.47000000000E+01 0.  1.
         -5    1    4    4    0  501  0.11416924144E+02 -0.18985124123E+02 -0.18700866483E+03  0.18837492353E+03  0.47000000000E+01 0.  1.
         12    1    5    5    0    0 -0.64931297654E+01  0.27587609026E+02 -0.19455527254E+03  0.19660872559E+03  0.00000000000E+00 0. -1.
        -12    1    5    5    0    0  0.82188167600E+01 -0.10197856812E+02 -0.79545897095E+01  0.15323861456E+02  0.00000000000E+00 0. -1.
<mgrwt>
<rscale>  0 0.12500829E+03</rscale>
<asrwt>0</asrwt>
<pdfrwt beam="1">  1       21 0.14781269E-02 0.12500829E+03</pdfrwt>
<pdfrwt beam="2">  1       21 0.62557468E-01 0.12500829E+03</pdfrwt>
<totfact> 0.46973331E+06</totfact>
</mgrwt>
</event>
<event>
 9    1  0.4458519E-002  0.1249990E+03  0.7818608E-02  0.1235071E+00
         21   -1    0    0  503  502  0.00000000000E+00  0.00000000000E+00  0.85782984104E+01  0.85782984104E+01  0.00000000000E+00 0. -1.
         21   -1    0    0  502  503 -0.00000000000E+00 -0.00000000000E+00 -0.45535665687E+03  0.45535665687E+03  0.00000000000E+00 0. -1.
         25    2    1    2    0    0 -0.13322676296E-14  0.00000000000E+00 -0.44677835846E+03  0.46393495528E+03  0.12499896457E+03 0.  0.
    9000006    2    3    3    0    0  0.22671909459E+01 -0.12008913843E+02 -0.26986578240E+03  0.27672529162E+03  0.59999936203E+02 0.  0.
    9000007    2    3    3    0    0 -0.22671909459E+01  0.12008913843E+02 -0.17691257606E+03  0.18720966366E+03  0.60000370281E+02 0.  0.
          5    1    4    4  501    0  0.27142416893E+01 -0.30989517677E+02 -0.23183245422E+03  0.23395746226E+03  0.47000000000E+01 0. -1.
         -5    1    4    4    0  501 -0.44705074344E+00  0.18980603833E+02 -0.38033328179E+02  0.42767829365E+02  0.47000000000E+01 0. -1.
         12    1    5    5    0    0 -0.12545367944E+02 -0.82845667239E+01 -0.15465534591E+03  0.15538435031E+03  0.00000000000E+00 0.  1.
        -12    1    5    5    0    0  0.10278176999E+02  0.20293480567E+02 -0.22257230145E+02  0.31825313348E+02  0.00000000000E+00 0.  1.
<mgrwt>
<rscale>  0 0.12499896E+03</rscale>
<asrwt>0</asrwt>
<pdfrwt beam="1">  1       21 0.13197387E-02 0.12499896E+03</pdfrwt>
<pdfrwt beam="2">  1       21 0.70054846E-01 0.12499896E+03</pdfrwt>
<totfact> 0.44071151E+06</totfact>
</mgrwt>
</event>
<event>
 9    1  0.4458519E-002  0.1249996E+03  0.7818608E-02  0.1235070E+00
         21   -1    0    0  503  502  0.00000000000E+00  0.00000000000E+00  0.47866441736E+03  0.47866441736E+03  0.00000000000E+00 0.  1.
         21   -1    0    0  502  503 -0.00000000000E+00 -0.00000000000E+00 -0.81606814045E+01  0.81606814045E+01  0.00000000000E+00 0.  1.
         25    2    1    2    0    0  0.00000000000E+00  0.17763568394E-14  0.47050373595E+03  0.48682509876E+03  0.12499964495E+03 0.  0.
    9000006    2    3    3    0    0  0.16968798892E+02 -0.42155351038E+01  0.23205219029E+03  0.24032040739E+03  0.59999735983E+02 0.  0.
    9000007    2    3    3    0    0 -0.16968798892E+02  0.42155351038E+01  0.23845154567E+03  0.24650469138E+03  0.59997603009E+02 0.  0.
          5    1    4    4  501    0  0.35465771907E+02  0.10717143644E+02  0.16006127408E+03  0.16436051717E+03  0.47000000000E+01 0. -1.
         -5    1    4    4    0  501 -0.18496973015E+02 -0.14932678748E+02  0.71990916205E+02  0.75959890214E+02  0.47000000000E+01 0. -1.
         12    1    5    5    0    0  0.10668904908E+02  0.25137354848E+02  0.89521899713E+02  0.93594244849E+02  0.00000000000E+00 0. -1.
        -12    1    5    5    0    0 -0.27637703799E+02 -0.20921819744E+02  0.14892964595E+03  0.15291044653E+03  0.00000000000E+00 0. -1.
<mgrwt>
<rscale>  0 0.12499964E+03</rscale>
<asrwt>0</asrwt>
<pdfrwt beam="1">  1       21 0.73640658E-01 0.12499964E+03</pdfrwt>
<pdfrwt beam="2">  1       21 0.12554898E-02 0.12499964E+03</pdfrwt>
<totfact> 0.42768093E+06</totfact>
</mgrwt>
</event>
<event>
 9    1  0.4458519E-002  0.1250014E+03  0.7818608E-02  0.1235067E+00
         21   -1    0    0  503  502  0.00000000000E+00  0.00000000000E+00  0.67571792810E+02  0.67571792810E+02  0.00000000000E+00 0. -1.
         21   -1    0    0  502  503 -0.00000000000E+00 -0.00000000000E+00 -0.57810192143E+02  0.57810192143E+02  0.00000000000E+00 0. -1.
         25    2    1    2    0    0  0.17763568394E-14  0.35527136788E-14  0.97616006676E+01  0.12538198495E+03  0.12500141320E+03 0.  0.
    9000006    2    3    3    0    0 -0.15845443305E+02 -0.70384744089E+01  0.24787387658E+01  0.62503806840E+02  0.59999696067E+02 0.  0.
    9000007    2    3    3    0    0  0.15845443305E+02  0.70384744089E+01  0.72828619018E+01  0.62878178112E+02  0.60000058414E+02 0.  0.
          5    1    4    4  501    0  0.44426410240E+01 -0.10422945710E+02  0.27298728654E+02  0.29928004321E+02  0.47000000000E+01 0. -1.
         -5    1    4    4    0  501 -0.20288084329E+02  0.33844713010E+01 -0.24819989888E+02  0.32575802519E+02  0.47000000000E+01 0. -1.
         12    1    5    5    0    0  0.92258956715E+01 -0.26190229231E+02 -0.17197574360E+01  0.27820906236E+02  0.00000000000E+00 0. -1.
        -12    1    5    5    0    0  0.66195476331E+01  0.33228703640E+02  0.90026193378E+01  0.35057271877E+02  0.00000000000E+00 0. -1.
<mgrwt>
<rscale>  0 0.12500141E+03</rscale>
<asrwt>0</asrwt>
<pdfrwt beam="1">  1       21 0.10395660E-01 0.12500141E+03</pdfrwt>
<pdfrwt beam="2">  1       21 0.88938758E-02 0.12500141E+03</pdfrwt>
<totfact> 0.73989280E+06</totfact>
</mgrwt>
</event>
<event>
 9    1  0.4458519E-002  0.1250002E+03  0.7818608E-02  0.1235069E+00
         21   -1    0    0  503  502  0.00000000000E+00  0.00000000000E+00  0.52164969780E+02  0.52164969780E+02  0.00000000000E+00 0. -1.
         21   -1    0    0  502  503 -0.00000000000E+00 -0.00000000000E+00 -0.74882839353E+02  0.74882839353E+02  0.00000000000E+00 0. -1.
         25    2    1    2    0    0 -0.35527136788E-14  0.00000000000E+00 -0.22717869573E+02  0.12704780913E+03  0.12500017683E+03 0.  0.
    9000006    2    3    3    0    0  0.17328601157E+02  0.24188212734E+01 -0.11653946933E+02  0.63576464071E+02  0.60000176585E+02 0.  0.
    9000007    2    3    3    0    0 -0.17328601157E+02 -0.24188212734E+01 -0.11063922640E+02  0.63471345063E+02  0.60000584543E+02 0.  0.
          5    1    4    4  501    0 -0.85569729374E+01 -0.15959960713E+02  0.13274093435E+02  0.22939783964E+02  0.47000000000E+01 0.  1.
         -5    1    4    4    0  501  0.25885574095E+02  0.18378781986E+02 -0.24928040368E+02  0.40636680107E+02  0.47000000000E+01 0.  1.
         12    1    5    5    0    0  0.55305024381E+01 -0.90428084000E+01 -0.30787544434E+02  0.32561199813E+02  0.00000000000E+00 0. -1.
        -12    1    5    5    0    0 -0.22859103596E+02  0.66239871267E+01  0.19723621795E+02  0.30910145250E+02  0.00000000000E+00 0. -1.
<mgrwt>
<rscale>  0 0.12500018E+03</rscale>
<asrwt>0</asrwt>
<pdfrwt beam="1">  1       21 0.80253799E-02 0.12500018E+03</pdfrwt>
<pdfrwt beam="2">  1       21 0.11520437E-01 0.12500018E+03</pdfrwt>
<totfact> 0.73762296E+06</totfact>
</mgrwt>
</event>
<event>
 9    1  0.4458519E-002  0.1249985E+03  0.7818608E-02  0.1235072E+00
         21   -1    0    0  503  502  0.00000000000E+00  0.00000000000E+00  0.22749633907E+02  0.22749633907E+02  0.00000000000E+00 0.  1.
         21   -1    0    0  502  503 -0.00000000000E+00 -0.00000000000E+00 -0.17170180347E+03  0.17170180347E+03  0.00000000000E+00 0.  1.
         25    2    1    2    0    0  0.17763568394E-14 -0.17763568394E-14 -0.14895216956E+03  0.19445143738E+03  0.12499845071E+03 0.  0.
    9000006    2    3    3    0    0 -0.13742647399E+02  0.89577325667E+01 -0.83970325197E+02  0.10449906655E+03  0.59999483883E+02 0.  0.
    9000007    2    3    3    0    0  0.13742647399E+02 -0.89577325667E+01 -0.64981844368E+02  0.89952370827E+02  0.59997396524E+02 0.  0.
          5    1    4    4  501    0 -0.12207587770E+02 -0.24801304956E+02 -0.35955667643E+02  0.45596381022E+02  0.47000000000E+01 0.  1.
         -5    1    4    4    0  501 -0.15350596287E+01  0.33759037523E+02 -0.48014657554E+02  0.58902685529E+02  0.47000000000E+01 0.  1.
         12    1    5    5    0    0 -0.14686145203E+02 -0.21949896570E+02 -0.13339758784E+02  0.29587666092E+02  0.00000000000E+00 0.  1.
        -12    1    5    5    0    0  0.28428792602E+02  0.12992164003E+02 -0.51642085584E+02  0.60364704735E+02  0.00000000000E+00 0.  1.
<mgrwt>
<rscale>  0 0.12499845E+03</rscale>
<asrwt>0</asrwt>
<pdfrwt beam="1">  1       21 0.34999439E-02 0.12499845E+03</pdfrwt>
<pdfrwt beam="2">  1       21 0.26415660E-01 0.12499845E+03</pdfrwt>
<totfact> 0.65533684E+06</totfact>
</mgrwt>
</event>
<event>
 9    1  0.4458519E-002  0.1249954E+03  0.7818608E-02  0.1235077E+00
         21   -1    0    0  503  502  0.00000000000E+00  0.00000000000E+00  0.55598852034E+02  0.55598852034E+02  0.00000000000E+00 0. -1.
         21   -1    0    0  502  503 -0.00000000000E+00 -0.00000000000E+00 -0.70252536824E+02  0.70252536824E+02  0.00000000000E+00 0. -1.
         25    2    1    2    0    0  0.17763568394E-14  0.35527136788E-14 -0.14653684790E+02  0.12585138886E+03  0.12499536631E+03 0.  0.
    9000006    2    3    3    0    0 -0.10064020836E+02 -0.14240197504E+02 -0.87205413990E+01  0.63088021955E+02  0.59999857763E+02 0.  0.
    9000007    2    3    3    0    0  0.10064020836E+02  0.14240197504E+02 -0.59331433908E+01  0.62763366902E+02  0.59999752450E+02 0.  0.
          5    1    4    4  501    0 -0.91815031112E+01  0.65109337732E+00 -0.32791758333E+02  0.34381875117E+02  0.47000000000E+01 0.  1.
         -5    1    4    4    0  501 -0.88251772484E+00 -0.14891290881E+02  0.24071216934E+02  0.28706146839E+02  0.47000000000E+01 0.  1.
         12    1    5    5    0    0  0.11593223836E+02 -0.19253708137E+02  0.11199959528E+02  0.25110699101E+02  0.00000000000E+00 0.  1.
        -12    1    5    5    0    0 -0.15292029998E+01  0.33493905641E+02 -0.17133102919E+02  0.37652667801E+02  0.00000000000E+00 0.  1.
<mgrwt>
<rscale>  0 0.12499537E+03</rscale>
<asrwt>0</asrwt>
<pdfrwt beam="1">  1       21 0.85536696E-02 0.12499537E+03</pdfrwt>
<pdfrwt beam="2">  1       21 0.10808083E-01 0.12499537E+03</pdfrwt>
<totfact> 0.73935298E+06</totfact>
</mgrwt>
</event>
<event>
 9    1  0.4458519E-002  0.1250006E+03  0.7818608E-02  0.1235068E+00
         21   -1    0    0  503  502  0.00000000000E+00  0.00000000000E+00  0.50712699500E+02  0.50712699500E+02  0.00000000000E+00 0. -1.
         21   -1    0    0  502  503 -0.00000000000E+00 -0.00000000000E+00 -0.77027757423E+02  0.77027757423E+02  0.00000000000E+00 0. -1.
         25    2    1    2    0    0 -0.44408920985E-15  0.00000000000E+00 -0.26315057923E+02  0.12774045692E+03  0.12500056824E+03 0.  0.
    9000006    2    3    3    0    0  0.13884751658E+01  0.17142035536E+02 -0.16473922536E+02  0.64553556910E+02  0.59999952836E+02 0.  0.
    9000007    2    3    3    0    0 -0.13884751658E+01 -0.17142035536E+02 -0.98411353871E+01  0.63186900013E+02  0.59999659515E+02 0.  0.
          5    1    4    4  501    0 -0.22571228453E+02 -0.50718828198E+01 -0.20544003561E+02  0.31294255568E+02  0.47000000000E+01 0.  1.
         -5    1    4    4    0  501  0.23959703619E+02  0.22213918356E+02  0.40700810255E+01  0.33259301342E+02  0.47000000000E+01 0.  1.
         12    1    5    5    0    0  0.20803389060E+01  0.21708969709E+02 -0.10436039666E+02  0.24176809130E+02  0.00000000000E+00 0. -1.
        -12    1    5    5    0    0 -0.34688140718E+01 -0.38851005245E+02  0.59490427848E+00  0.39010090883E+02  0.00000000000E+00 0. -1.
<mgrwt>
<rscale>  0 0.12500057E+03</rscale>
<asrwt>0</asrwt>
<pdfrwt beam="1">  1       21 0.78019538E-02 0.12500057E+03</pdfrwt>
<pdfrwt beam="2">  1       21 0.11850424E-01 0.12500057E+03</pdfrwt>
<totfact> 0.73667582E+06</totfact>
</mgrwt>
</event>
<event>
 9    1  0.4458519E-002  0.1250030E+03  0.7818608E-02  0.1235065E+00
         21   -1    0    0  503  502  0.00000000000E+00  0.00000000000E+00  0.17293547630E+03  0.17293547630E+03  0.00000000000E+00 0.  1.
         21   -1    0    0  502  503 -0.00000000000E+00 -0.00000000000E+00 -0.22588972595E+02  0.22588972595E+02  0.00000000000E+00 0.  1.
         25    2    1    2    0    0  0.53290705182E-14  0.00000000000E+00  0.15034650371E+03  0.19552444890E+03  0.12500295572E+03 0.  0.
    9000006    2    3    3    0    0 -0.89888044519E+01 -0.11189696077E+02  0.90840950671E+02  0.10980919960E+03  0.59999784109E+02 0.  0.
    9000007    2    3    3    0    0  0.89888044519E+01  0.11189696077E+02  0.59505553037E+02  0.85715249303E+02  0.60001543456E+02 0.  0.
          5    1    4    4  501    0 -0.79203646941E+01  0.60757737512E+01 -0.51376607656E+01  0.12170980310E+02  0.47000000000E+01 0. -1.
         -5    1    4    4    0  501 -0.10684397578E+01 -0.17265469829E+02  0.95978611437E+02  0.97638219286E+02  0.47000000000E+01 0. -1.
         12    1    5    5    0    0 -0.24653209540E+02  0.49886032080E+01  0.14003369663E+02  0.28788213986E+02  0.00000000000E+00 0. -1.
        -12    1    5    5    0    0  0.33642013992E+02  0.62010928695E+01  0.45502183374E+02  0.56927035317E+02  0.00000000000E+00 0. -1.
<mgrwt>
<rscale>  0 0.12500296E+03</rscale>
<asrwt>0</asrwt>
<pdfrwt beam="1">  1       21 0.26605457E-01 0.12500296E+03</pdfrwt>
<pdfrwt beam="2">  1       21 0.34752267E-02 0.12500296E+03</pdfrwt>
<totfact> 0.65408772E+06</totfact>
</mgrwt>
</event>
<event>
 9    1  0.4458519E-002  0.1250012E+03  0.7818608E-02  0.1235067E+00
         21   -1    0    0  503  502  0.00000000000E+00  0.00000000000E+00  0.21941849330E+03  0.21941849330E+03  0.00000000000E+00 0.  1.
         21   -1    0    0  502  503 -0.00000000000E+00 -0.00000000000E+00 -0.17803072549E+02  0.17803072549E+02  0.00000000000E+00 0.  1.
         25    2    1    2    0    0 -0.88817841970E-15  0.35527136788E-14  0.20161542075E+03  0.23722156585E+03  0.12500117367E+03 0.  0.
    9000006    2    3    3    0    0  0.59140649330E+01  0.15928885740E+02  0.10872633714E+03  0.12534004753E+03  0.60000046349E+02 0.  0.
    9000007    2    3    3    0    0 -0.59140649330E+01 -0.15928885740E+02  0.92889083614E+02  0.11188151832E+03  0.60003222601E+02 0.  0.
          5    1    4    4  501    0  0.15044969945E+00  0.21751103234E+02  0.72204451857E+01  0.23395682416E+02  0.47000000000E+01 0.  1.
         -5    1    4    4    0  501  0.57636152336E+01 -0.58222174946E+01  0.10150589195E+03  0.10194436511E+03  0.47000000000E+01 0.  1.
         12    1    5    5    0    0 -0.21143673324E+02 -0.33051992840E+02  0.62988300449E+02  0.74209265902E+02  0.00000000000E+00 0.  1.
        -12    1    5    5    0    0  0.15229608391E+02  0.17123107100E+02  0.29900783165E+02  0.37672252420E+02  0.00000000000E+00 0.  1.
<mgrwt>
<rscale>  0 0.12500117E+03</rscale>
<asrwt>0</asrwt>
<pdfrwt beam="1">  1       21 0.33756689E-01 0.12500117E+03</pdfrwt>
<pdfrwt beam="2">  1       21 0.27389344E-02 0.12500117E+03</pdfrwt>
<totfact> 0.61100758E+06</totfact>
</mgrwt>
</event>
<event>
 9    1  0.4458519E-002  0.1250103E+03  0.7818608E-02  0.1235053E+00
         21   -1    0    0  503  502  0.00000000000E+00  0.00000000000E+00  0.52885931638E+02  0.52885931638E+02  0.00000000000E+00 0. -1.
         21   -1    0    0  502  503 -0.00000000000E+00 -0.00000000000E+00 -0.73873980858E+02  0.73873980858E+02  0.00000000000E+00 0. -1.
         25    2    1    2    0    0 -0.35527136788E-14 -0.35527136788E-14 -0.20988049220E+02  0.12675991250E+03  0.12501030840E+03 0.  0.
    9000006    2    3    3    0    0 -0.89986913674E+01 -0.14849419712E+02 -0.12856447766E+02  0.63771199344E+02  0.59999965871E+02 0.  0.
    9000007    2    3    3    0    0  0.89986913674E+01  0.14849419712E+02 -0.81316014536E+01  0.62988713153E+02  0.59999777753E+02 0.  0.
          5    1    4    4  501    0  0.24068453964E+02 -0.67630625624E+01  0.35607841503E+01  0.25686546580E+02  0.47000000000E+01 0. -1.
         -5    1    4    4    0  501 -0.33067145332E+02 -0.80863571495E+01 -0.16417231917E+02  0.38084652764E+02  0.47000000000E+01 0. -1.
         12    1    5    5    0    0  0.30147541529E+02 -0.77005000726E+01 -0.38705774243E+00  0.31117869067E+02  0.00000000000E+00 0.  1.
        -12    1    5    5    0    0 -0.21148850161E+02  0.22549919784E+02 -0.77445437112E+01  0.31870844086E+02  0.00000000000E+00 0.  1.
<mgrwt>
<rscale>  0 0.12501031E+03</rscale>
<asrwt>0</asrwt>
<pdfrwt beam="1">  1       21 0.81362973E-02 0.12501031E+03</pdfrwt>
<pdfrwt beam="2">  1       21 0.11365228E-01 0.12501031E+03</pdfrwt>
<totfact> 0.73782442E+06</totfact>
</mgrwt>
</event>
<event>
 9    1  0.4458519E-002  0.1250010E+03  0.7818608E-02  0.1235068E+00
         21   -1    0    0  503  502  0.00000000000E+00  0.00000000000E+00  0.27351464002E+03  0.27351464002E+03  0.00000000000E+00 0. -1.
         21   -1    0    0  502  503 -0.00000000000E+00 -0.00000000000E+00 -0.14281907951E+02  0.14281907951E+02  0.00000000000E+00 0. -1.
         25    2    1    2    0    0  0.24424906542E-14  0.00000000000E+00  0.25923273207E+03  0.28779654797E+03  0.12500097459E+03 0.  0.
    9000006    2    3    3    0    0 -0.13962255097E+01  0.16432954054E+02  0.14310033840E+03  0.15604419747E+03  0.60000777412E+02 0.  0.
    9000007    2    3    3    0    0  0.13962255097E+01 -0.16432954054E+02  0.11613239367E+03  0.13175235050E+03  0.59999646483E+02 0.  0.
          5    1    4    4  501    0  0.21016552451E+02  0.25291722087E+02  0.10950375699E+03  0.11443133084E+03  0.47000000000E+01 0.  1.
         -5    1    4    4    0  501 -0.22412777960E+02 -0.88587680332E+01  0.33596581417E+02  0.41612866638E+02  0.47000000000E+01 0.  1.
         12    1    5    5    0    0  0.33636663198E+01 -0.36871236243E+02  0.96439294312E+02  0.10330217713E+03  0.00000000000E+00 0. -1.
        -12    1    5    5    0    0 -0.19674408101E+01  0.20438282189E+02  0.19693099353E+02  0.28450173362E+02  0.00000000000E+00 0. -1.
<mgrwt>
<rscale>  0 0.12500097E+03</rscale>
<asrwt>0</asrwt>
<pdfrwt beam="1">  1       21 0.42079171E-01 0.12500097E+03</pdfrwt>
<pdfrwt beam="2">  1       21 0.21972168E-02 0.12500097E+03</pdfrwt>
<totfact> 0.56484443E+06</totfact>
</mgrwt>
</event>
<event>
 9    1  0.4458519E-002  0.1250003E+03  0.7818608E-02  0.1235069E+00
         21   -1    0    0  503  502  0.00000000000E+00  0.00000000000E+00  0.43098037693E+01  0.43098037693E+01  0.00000000000E+00 0.  1.
         21   -1    0    0  502  503 -0.00000000000E+00 -0.00000000000E+00 -0.90636880606E+03  0.90636880606E+03  0.00000000000E+00 0.  1.
         25    2    1    2    0    0 -0.88817841970E-15 -0.17763568394E-14 -0.90205900229E+03  0.91067860983E+03  0.12500034715E+03 0.  0.
    9000006    2    3    3    0    0  0.34732515267E+01  0.76211194389E+01 -0.56294497851E+03  0.56619513734E+03  0.59997831511E+02 0.  0.
    9000007    2    3    3    0    0 -0.34732515267E+01 -0.76211194389E+01 -0.33911402378E+03  0.34448347249E+03  0.60003306179E+02 0.  0.
          5    1    4    4  501    0 -0.18996354364E+02  0.10136087051E+02 -0.89004866361E+02  0.91692736766E+02  0.47000000000E+01 0. -1.
         -5    1    4    4    0  501  0.22469605890E+02 -0.25149676122E+01 -0.47394011214E+03  0.47450240057E+03  0.47000000000E+01 0. -1.
         12    1    5    5    0    0 -0.11382628232E+02 -0.24961280139E+02 -0.78168871241E+02  0.82843238486E+02  0.00000000000E+00 0.  1.
        -12    1    5    5    0    0  0.79093767050E+01  0.17340160700E+02 -0.26094515254E+03  0.26164023400E+03  0.00000000000E+00 0.  1.
<mgrwt>
<rscale>  0 0.12500035E+03</rscale>
<asrwt>0</asrwt>
<pdfrwt beam="1">  1       21 0.66304696E-03 0.12500035E+03</pdfrwt>
<pdfrwt beam="2">  1       21 0.13944131E+00 0.12500035E+03</pdfrwt>
<totfact> 0.25994178E+06</totfact>
</mgrwt>
</event>
<event>
 9    1  0.4458519E-002  0.1249991E+03  0.7818608E-02  0.1235071E+00
         21   -1    0    0  503  502  0.00000000000E+00  0.00000000000E+00  0.38445489910E+03  0.38445489910E+03  0.00000000000E+00 0.  1.
         21   -1    0    0  502  503 -0.00000000000E+00 -0.00000000000E+00 -0.10160342924E+02  0.10160342924E+02  0.00000000000E+00 0.  1.
         25    2    1    2    0    0 -0.17763568394E-14 -0.44408920985E-15  0.37429455618E+03  0.39461524202E+03  0.12499909782E+03 0.  0.
    9000006    2    3    3    0    0  0.11127574180E+02 -0.37366078184E+01  0.22810746738E+03  0.23615863760E+03  0.60000835758E+02 0.  0.
    9000007    2    3    3    0    0 -0.11127574180E+02  0.37366078184E+01  0.14618708879E+03  0.15845660443E+03  0.60000378425E+02 0.  0.
          5    1    4    4  501    0 -0.35365805194E+01 -0.97612899468E+00  0.21673615215E+03  0.21681814933E+03  0.47000000000E+01 0. -1.
         -5    1    4    4    0  501  0.14664154700E+02 -0.27604788237E+01  0.11371315232E+02  0.19340488270E+02  0.47000000000E+01 0. -1.
         12    1    5    5    0    0 -0.32891456731E+02 -0.10485920652E+02  0.72069263915E+02  0.79911083456E+02  0.00000000000E+00 0. -1.
        -12    1    5    5    0    0  0.21763882551E+02  0.14222528471E+02  0.74117824879E+02  0.78545520971E+02  0.00000000000E+00 0. -1.
<mgrwt>
<rscale>  0 0.12499910E+03</rscale>
<asrwt>0</asrwt>
<pdfrwt beam="1">  1       21 0.59146896E-01 0.12499910E+03</pdfrwt>
<pdfrwt beam="2">  1       21 0.15631300E-02 0.12499910E+03</pdfrwt>
<totfact> 0.48401675E+06</totfact>
</mgrwt>
</event>
<event>
 9    1  0.4458519E-002  0.1249823E+03  0.7818608E-02  0.1235097E+00
         21   -1    0    0  503  502  0.00000000000E+00  0.00000000000E+00  0.90620260001E+02  0.90620260001E+02  0.00000000000E+00 0.  1.
         21   -1    0    0  502  503 -0.00000000000E+00 -0.00000000000E+00 -0.43093499666E+02  0.43093499666E+02  0.00000000000E+00 0.  1.
         25    2    1    2    0    0  0.00000000000E+00  0.88817841970E-15  0.47526760335E+02  0.13371375967E+03  0.12498230505E+03 0.  0.
    9000006    2    3    3    0    0  0.11140560358E+02  0.17047536502E+00  0.93675246473E+01  0.61739367531E+02  0.59998815306E+02 0.  0.
    9000007    2    3    3    0    0 -0.11140560358E+02 -0.17047536502E+00  0.38159235688E+02  0.71974392137E+02  0.60000372567E+02 0.  0.
          5    1    4    4  501    0  0.32210524761E+02 -0.15105614153E+01 -0.84877560248E+01  0.33673902410E+02  0.47000000000E+01 0.  1.
         -5    1    4    4    0  501 -0.21069964403E+02  0.16810367803E+01  0.17855280672E+02  0.28065465121E+02  0.47000000000E+01 0.  1.
         12    1    5    5    0    0 -0.19496229715E+02 -0.10389077221E+02 -0.83586462935E+01  0.23619967537E+02  0.00000000000E+00 0. -1.
        -12    1    5    5    0    0  0.83556693567E+01  0.10218601856E+02  0.46517881982E+02  0.48354424599E+02  0.00000000000E+00 0. -1.
<mgrwt>
<rscale>  0 0.12498231E+03</rscale>
<asrwt>0</asrwt>
<pdfrwt beam="1">  1       21 0.13941578E-01 0.12498231E+03</pdfrwt>
<pdfrwt beam="2">  1       21 0.66297692E-02 0.12498231E+03</pdfrwt>
<totfact> 0.72900134E+06</totfact>
</mgrwt>
</event>
<event>
 8    1  0.4458519E-002  0.1239751E+03  0.7818608E-02  0.1236680E+00
         21   -1    0    0  503  502  0.00000000000E+00  0.00000000000E+00  0.95540307339E+02  0.95540307339E+02  0.00000000000E+00 0.  1.
         21   -1    0    0  502  503 -0.00000000000E+00 -0.00000000000E+00 -0.40218177465E+02  0.40218177465E+02  0.00000000000E+00 0.  1.
    9000006    2    1    2    0    0  0.13398749062E+02  0.92113156619E+00  0.36288867514E+02  0.71395152114E+02  0.60000090669E+02 0.  0.
    9000007    2    1    2    0    0 -0.13398749062E+02 -0.92113156619E+00  0.19033262361E+02  0.64363332689E+02  0.59999987991E+02 0.  0.
          5    1    3    3  501    0 -0.19854415490E+02 -0.15548444031E+01 -0.18159512246E+01  0.20542712440E+02  0.47000000000E+01 0. -1.
         -5    1    3    3    0  501  0.33253164552E+02  0.24759759692E+01  0.38104818738E+02  0.50852439674E+02  0.47000000000E+01 0. -1.
         12    1    4    4    0    0 -0.72484827105E+01  0.26844244305E+02 -0.35732907729E+01  0.28034306855E+02  0.00000000000E+00 0. -1.
        -12    1    4    4    0    0 -0.61502663517E+01 -0.27765375871E+02  0.22606553134E+02  0.36329025834E+02  0.00000000000E+00 0. -1.
<mgrwt>
<rscale>  0 0.12397511E+03</rscale>
<asrwt>0</asrwt>
<pdfrwt beam="1">  1       21 0.14698509E-01 0.12397511E+03</pdfrwt>
<pdfrwt beam="2">  1       21 0.61874120E-02 0.12397511E+03</pdfrwt>
<totfact> 0.74525993E+06</totfact>
</mgrwt>
</event>
<event>
 9    1  0.4458519E-002  0.1249998E+03  0.7818608E-02  0.1235070E+00
         21   -1    0    0  503  502  0.00000000000E+00  0.00000000000E+00  0.16004863691E+03  0.16004863691E+03  0.00000000000E+00 0.  1.
         21   -1    0    0  502  503 -0.00000000000E+00 -0.00000000000E+00 -0.24406557082E+02  0.24406557082E+02  0.00000000000E+00 0.  1.
         25    2    1    2    0    0  0.00000000000E+00  0.17763568394E-14  0.13564207983E+03  0.18445519399E+03  0.12499977908E+03 0.  0.
    9000006    2    3    3    0    0 -0.65547398387E+01  0.13929602681E+02  0.55594302254E+02  0.83239819773E+02  0.60009521807E+02 0.  0.
    9000007    2    3    3    0    0  0.65547398387E+01 -0.13929602681E+02  0.80047777576E+02  0.10121537422E+03  0.59999223650E+02 0.  0.
          5    1    4    4  501    0  0.24794548436E+02  0.58018519449E+01  0.38283044700E+02  0.46218098508E+02  0.47000000000E+01 0.  1.
         -5    1    4    4    0  501 -0.31349288275E+02  0.81277507365E+01  0.17311257554E+02  0.37021721266E+02  0.47000000000E+01 0.  1.
         12    1    5    5    0    0  0.27836362905E+02 -0.93962474539E+01  0.15748498316E+02  0.33334183134E+02  0.00000000000E+00 0. -1.
        -12    1    5    5    0    0 -0.21281623066E+02 -0.45333552275E+01  0.64299279260E+02  0.67881191087E+02  0.00000000000E+00 0. -1.
<mgrwt>
<rscale>  0 0.12499978E+03</rscale>
<asrwt>0</asrwt>
<pdfrwt beam="1">  1       21 0.24622867E-01 0.12499978E+03</pdfrwt>
<pdfrwt beam="2">  1       21 0.37548550E-02 0.12499978E+03</pdfrwt>
<totfact> 0.66644463E+06</totfact>
</mgrwt>
</event>
<event>
 9    1  0.4458519E-002  0.1249988E+03  0.7818608E-02  0.1235071E+00
         21   -1    0    0  503  502  0.00000000000E+00  0.00000000000E+00  0.27813881875E+02  0.27813881875E+02  0.00000000000E+00 0.  1.
         21   -1    0    0  502  503 -0.00000000000E+00 -0.00000000000E+00 -0.14043967562E+03  0.14043967562E+03  0.00000000000E+00 0.  1.
         25    2    1    2    0    0  0.00000000000E+00  0.00000000000E+00 -0.11262579374E+03  0.16825355749E+03  0.12499876077E+03 0.  0.
    9000006    2    3    3    0    0 -0.10062652019E+02 -0.13673105871E+02 -0.50599447827E+02  0.80302198731E+02  0.59999401753E+02 0.  0.
    9000007    2    3    3    0    0  0.10062652019E+02  0.13673105871E+02 -0.62026345916E+02  0.87951358763E+02  0.59999692756E+02 0.  0.
          5    1    4    4  501    0 -0.33516604153E+01 -0.18655359336E+02  0.78680683881E+01  0.21053564061E+02  0.47000000000E+01 0. -1.
         -5    1    4    4    0  501 -0.67109916041E+01  0.49822534655E+01 -0.58467516215E+02  0.59248634670E+02  0.47000000000E+01 0. -1.
         12    1    5    5    0    0  0.11899349745E+02  0.14008743656E+02  0.64276684176E+01  0.19471886002E+02  0.00000000000E+00 0.  1.
        -12    1    5    5    0    0 -0.18366977260E+01 -0.33563778553E+00 -0.68454014334E+02  0.68479472762E+02  0.00000000000E+00 0.  1.
<mgrwt>
<rscale>  0 0.12499876E+03</rscale>
<asrwt>0</asrwt>
<pdfrwt beam="1">  1       21 0.42790589E-02 0.12499876E+03</pdfrwt>
<pdfrwt beam="2">  1       21 0.21606103E-01 0.12499876E+03</pdfrwt>
<totfact> 0.68526957E+06</totfact>
</mgrwt>
</event>
<event>
 9    1  0.4458519E-002  0.1250022E+03  0.7818608E-02  0.1235066E+00
         21   -1    0    0  503  502  0.00000000000E+00  0.00000000000E+00  0.55904147830E+03  0.55904147830E+03  0.00000000000E+00 0. -1.
         21   -1    0    0  502  503 -0.00000000000E+00 -0.00000000000E+00 -0.69876513443E+01  0.69876513443E+01  0.00000000000E+00 0. -1.
         25    2    1    2    0    0  0.17763568394E-14  0.17763568394E-14  0.55205382696E+03  0.56602912965E+03  0.12500219098E+03 0.  0.
    9000006    2    3    3    0    0 -0.61893419255E+01 -0.14919235547E+02  0.30655947128E+03  0.31279323426E+03  0.60000053532E+02 0.  0.
    9000007    2    3    3    0    0  0.61893419255E+01  0.14919235547E+02  0.24549435568E+03  0.25323589539E+03  0.60000404168E+02 0.  0.
          5    1    4    4  501    0  0.72600489321E+00  0.22876652619E+02  0.12216121246E+03  0.12437572170E+03  0.47000000000E+01 0.  1.
         -5    1    4    4    0  501 -0.69153468187E+01 -0.37795888166E+02  0.18439825881E+03  0.18841751255E+03  0.47000000000E+01 0.  1.
         12    1    5    5    0    0 -0.65663022915E+01  0.70637195057E+01  0.27485835187E+01  0.10028318423E+02  0.00000000000E+00 0. -1.
        -12    1    5    5    0    0  0.12755644217E+02  0.78555160412E+01  0.24274577216E+03  0.24320757697E+03  0.00000000000E+00 0. -1.
<mgrwt>
<rscale>  0 0.12500219E+03</rscale>
<asrwt>0</asrwt>
<pdfrwt beam="1">  1       21 0.86006346E-01 0.12500219E+03</pdfrwt>
<pdfrwt beam="2">  1       21 0.10750237E-02 0.12500219E+03</pdfrwt>
<totfact> 0.38673318E+06</totfact>
</mgrwt>
</event>
<event>
 9    1  0.4458519E-002  0.1249982E+03  0.7818608E-02  0.1235072E+00
         21   -1    0    0  503  502  0.00000000000E+00  0.00000000000E+00  0.13781258754E+03  0.13781258754E+03  0.00000000000E+00 0. -1.
         21   -1    0    0  502  503 -0.00000000000E+00 -0.00000000000E+00 -0.28343843738E+02  0.28343843738E+02  0.00000000000E+00 0. -1.
         25    2    1    2    0    0  0.00000000000E+00  0.00000000000E+00  0.10946874380E+03  0.16615643128E+03  0.12499821513E+03 0.  0.
    9000006    2    3    3    0    0 -0.12851536020E+02  0.42486542906E+01  0.69493489354E+02  0.92800560087E+02  0.59994881854E+02 0.  0.
    9000007    2    3    3    0    0  0.12851536020E+02 -0.42486542906E+01  0.39975254451E+02  0.73355871194E+02  0.59998748560E+02 0.  0.
          5    1    4    4  501    0 -0.12207180676E+02 -0.23092049306E+02  0.12342820887E+02  0.29269322313E+02  0.47000000000E+01 0. -1.
         -5    1    4    4    0  501 -0.64435534415E+00  0.27340703597E+02  0.57150668467E+02  0.63531237774E+02  0.47000000000E+01 0. -1.
         12    1    5    5    0    0 -0.15904345419E+01 -0.30970752255E+02  0.22484349743E+02  0.38304868628E+02  0.00000000000E+00 0.  1.
        -12    1    5    5    0    0  0.14441970562E+02  0.26722097964E+02  0.17490904708E+02  0.35051002566E+02  0.00000000000E+00 0.  1.
<mgrwt>
<rscale>  0 0.12499822E+03</rscale>
<asrwt>0</asrwt>
<pdfrwt beam="1">  1       21 0.21201936E-01 0.12499822E+03</pdfrwt>
<pdfrwt beam="2">  1       21 0.43605914E-02 0.12499822E+03</pdfrwt>
<totfact> 0.68778081E+06</totfact>
</mgrwt>
</event>
<event>
 9    1  0.4458519E-002  0.1250085E+03  0.7818608E-02  0.1235056E+00
         21   -1    0    0  503  502  0.00000000000E+00  0.00000000000E+00  0.17144399541E+03  0.17144399541E+03  0.00000000000E+00 0.  1.
         21   -1    0    0  502  503 -0.00000000000E+00 -0.00000000000E+00 -0.22787518652E+02  0.22787518652E+02  0.00000000000E+00 0.  1.
         25    2    1    2    0    0  0.00000000000E+00 -0.88817841970E-15  0.14865647676E+03  0.19423151406E+03  0.12500853160E+03 0.  0.
    9000006    2    3    3    0    0 -0.13201232062E+02  0.73312081613E+01  0.60538962661E+02  0.86561912563E+02  0.59999829712E+02 0.  0.
    9000007    2    3    3    0    0  0.13201232062E+02 -0.73312081613E+01  0.88117514098E+02  0.10766960150E+03  0.60000230461E+02 0.  0.
          5    1    4    4  501    0  0.20183925032E+02  0.13540891648E+02  0.38616755349E+02  0.45870364834E+02  0.47000000000E+01 0.  1.
         -5    1    4    4    0  501 -0.33385157094E+02 -0.62096834868E+01  0.21922207312E+02  0.40691547730E+02  0.47000000000E+01 0.  1.
         12    1    5    5    0    0  0.32720524746E+02  0.77951117625E+01  0.67823848978E+02  0.75706479229E+02  0.00000000000E+00 0.  1.
        -12    1    5    5    0    0 -0.19519292684E+02 -0.15126319924E+02  0.20293665119E+02  0.31963122271E+02  0.00000000000E+00 0.  1.
<mgrwt>
<rscale>  0 0.12500853E+03</rscale>
<asrwt>0</asrwt>
<pdfrwt beam="1">  1       21 0.26375999E-01 0.12500853E+03</pdfrwt>
<pdfrwt beam="2">  1       21 0.35057722E-02 0.12500853E+03</pdfrwt>
<totfact> 0.65541063E+06</totfact>
</mgrwt>
</event>
<event>
 9    1  0.4458519E-002  0.1250039E+03  0.7818608E-02  0.1235063E+00
         21   -1    0    0  503  502  0.00000000000E+00  0.00000000000E+00  0.12866933837E+02  0.12866933837E+02  0.00000000000E+00 0. -1.
         21   -1    0    0  502  503 -0.00000000000E+00 -0.00000000000E+00 -0.30360723776E+03  0.30360723776E+03  0.00000000000E+00 0. -1.
         25    2    1    2    0    0  0.00000000000E+00  0.17763568394E-14 -0.29074030393E+03  0.31647417160E+03  0.12500390779E+03 0.  0.
    9000006    2    3    3    0    0  0.90763380820E+01 -0.92809652694E+01 -0.11561941772E+03  0.13090592100E+03  0.59999951414E+02 0.  0.
    9000007    2    3    3    0    0 -0.90763380820E+01  0.92809652694E+01 -0.17512088620E+03  0.18556825060E+03  0.59997788424E+02 0.  0.
          5    1    4    4  501    0  0.11387305513E+02  0.11415588094E+02 -0.40022751405E+01  0.17265415856E+02  0.47000000000E+01 0.  1.
         -5    1    4    4    0  501 -0.23109674312E+01 -0.20696553364E+02 -0.11161714258E+03  0.11364050515E+03  0.47000000000E+01 0.  1.
         12    1    5    5    0    0 -0.27526329220E+02  0.19533232765E+02 -0.62941579260E+02  0.71420503935E+02  0.00000000000E+00 0.  1.
        -12    1    5    5    0    0  0.18449991138E+02 -0.10252267496E+02 -0.11217930694E+03  0.11414774666E+03  0.00000000000E+00 0.  1.
<mgrwt>
<rscale>  0 0.12500391E+03</rscale>
<asrwt>0</asrwt>
<pdfrwt beam="1">  1       21 0.19795283E-02 0.12500391E+03</pdfrwt>
<pdfrwt beam="2">  1       21 0.46708805E-01 0.12500391E+03</pdfrwt>
<totfact> 0.54108628E+06</totfact>
</mgrwt>
</event>
<event>
 9    1  0.4458519E-002  0.1250001E+03  0.7818608E-02  0.1235069E+00
         21   -1    0    0  503  502  0.00000000000E+00  0.00000000000E+00  0.64000505821E+01  0.64000505821E+01  0.00000000000E+00 0.  1.
         21   -1    0    0  502  503 -0.00000000000E+00 -0.00000000000E+00 -0.61034726890E+03  0.61034726890E+03  0.00000000000E+00 0.  1.
         25    2    1    2    0    0  0.17763568394E-14  0.00000000000E+00 -0.60394721831E+03  0.61674731948E+03  0.12500005430E+03 0.  0.
    9000006    2    3    3    0    0  0.11421549771E+02 -0.12772228976E+02 -0.28440974414E+03  0.29117431526E+03  0.59999980584E+02 0.  0.
    9000007    2    3    3    0    0 -0.11421549771E+02  0.12772228976E+02 -0.31953747417E+03  0.32557300422E+03  0.60000017046E+02 0.  0.
          5    1    4    4  501    0  0.12127541616E+02 -0.16017752865E+01 -0.99698171306E+01  0.16466031803E+02  0.47000000000E+01 0.  1.
         -5    1    4    4    0  501 -0.70599184501E+00 -0.11170453689E+02 -0.27443992701E+03  0.27470828345E+03  0.47000000000E+01 0.  1.
         12    1    5    5    0    0  0.58515027222E+01  0.32624903165E+02 -0.22549963718E+03  0.22792259818E+03  0.00000000000E+00 0. -1.
        -12    1    5    5    0    0 -0.17273052493E+02 -0.19852674189E+02 -0.94037836991E+02  0.97650406046E+02  0.00000000000E+00 0. -1.
<mgrwt>
<rscale>  0 0.12500005E+03</rscale>
<asrwt>0</asrwt>
<pdfrwt beam="1">  1       21 0.98462303E-03 0.12500005E+03</pdfrwt>
<pdfrwt beam="2">  1       21 0.93899593E-01 0.12500005E+03</pdfrwt>
<totfact> 0.36345990E+06</totfact>
</mgrwt>
</event>
<event>
 9    1  0.4458519E-002  0.1250006E+03  0.7818608E-02  0.1235068E+00
         21   -1    0    0  503  502  0.00000000000E+00  0.00000000000E+00  0.14749354002E+03  0.14749354002E+03  0.00000000000E+00 0. -1.
         21   -1    0    0  502  503 -0.00000000000E+00 -0.00000000000E+00 -0.26484452046E+02  0.26484452046E+02  0.00000000000E+00 0. -1.
         25    2    1    2    0    0 -0.35527136788E-14  0.00000000000E+00  0.12100908797E+03  0.17397799206E+03  0.12500056940E+03 0.  0.
    9000006    2    3    3    0    0  0.16500045922E+02  0.44335041022E+01  0.55198754504E+02  0.83299656658E+02  0.60000190221E+02 0.  0.
    9000007    2    3    3    0    0 -0.16500045922E+02 -0.44335041022E+01  0.65810333465E+02  0.90678335403E+02  0.59997108652E+02 0.  0.
          5    1    4    4  501    0  0.37340103699E+01 -0.57302798343E+01 -0.11663583326E+02  0.14314611990E+02  0.47000000000E+01 0.  1.
         -5    1    4    4    0  501  0.12766035552E+02  0.10163783936E+02  0.66862337831E+02  0.68985044668E+02  0.47000000000E+01 0.  1.
         12    1    5    5    0    0  0.87094475307E+01 -0.17535326826E+02  0.64587234183E+00  0.19589775758E+02  0.00000000000E+00 0. -1.
        -12    1    5    5    0    0 -0.25209493452E+02  0.13101822724E+02  0.65164461123E+02  0.71088559644E+02  0.00000000000E+00 0. -1.
<mgrwt>
<rscale>  0 0.12500057E+03</rscale>
<asrwt>0</asrwt>
<pdfrwt beam="1">  1       21 0.22691313E-01 0.12500057E+03</pdfrwt>
<pdfrwt beam="2">  1       21 0.40745312E-02 0.12500057E+03</pdfrwt>
<totfact> 0.67848188E+06</totfact>
</mgrwt>
</event>
<event>
 9    1  0.4458519E-002  0.1249973E+03  0.7818608E-02  0.1235074E+00
         21   -1    0    0  503  502  0.00000000000E+00  0.00000000000E+00  0.14452853468E+03  0.14452853468E+03  0.00000000000E+00 0. -1.
         21   -1    0    0  502  503 -0.00000000000E+00 -0.00000000000E+00 -0.27026362135E+02  0.27026362135E+02  0.00000000000E+00 0. -1.
         25    2    1    2    0    0  0.35527136788E-14  0.13322676296E-14  0.11750217255E+03  0.17155489682E+03  0.12499728825E+03 0.  0.
    9000006    2    3    3    0    0 -0.13010197289E+02  0.12515401407E+01  0.74711807367E+02  0.96709421407E+02  0.60000220355E+02 0.  0.
    9000007    2    3    3    0    0  0.13010197289E+02 -0.12515401407E+01  0.42790365183E+02  0.74845475413E+02  0.59999985426E+02 0.  0.
          5    1    4    4  501    0 -0.10379960029E+02 -0.28727504285E+02  0.35805883594E+02  0.47298671997E+02  0.47000000000E+01 0.  1.
         -5    1    4    4    0  501 -0.26302372594E+01  0.29979044426E+02  0.38905923772E+02  0.49410749410E+02  0.47000000000E+01 0.  1.
         12    1    5    5    0    0  0.35790085185E+02  0.32627890454E+01  0.35474018719E+02  0.50497346405E+02  0.00000000000E+00 0.  1.
        -12    1    5    5    0    0 -0.22779887897E+02 -0.45143291860E+01  0.73163464640E+01  0.24348129007E+02  0.00000000000E+00 0.  1.
<mgrwt>
<rscale>  0 0.12499729E+03</rscale>
<asrwt>0</asrwt>
<pdfrwt beam="1">  1       21 0.22235159E-01 0.12499729E+03</pdfrwt>
<pdfrwt beam="2">  1       21 0.41579020E-02 0.12499729E+03</pdfrwt>
<totfact> 0.68138478E+06</totfact>
</mgrwt>
</event>
<event>
 9    1  0.4458519E-002  0.1250009E+03  0.7818608E-02  0.1235068E+00
         21   -1    0    0  503  502  0.00000000000E+00  0.00000000000E+00  0.28985694669E+03  0.28985694669E+03  0.00000000000E+00 0.  1.
         21   -1    0    0  502  503 -0.00000000000E+00 -0.00000000000E+00 -0.13476669214E+02  0.13476669214E+02  0.00000000000E+00 0.  1.
         25    2    1    2    0    0  0.00000000000E+00 -0.35527136788E-14  0.27638027748E+03  0.30333361591E+03  0.12500089904E+03 0.  0.
    9000006    2    3    3    0    0 -0.32510495544E+01  0.17169173097E+02  0.14045245292E+03  0.15372800878E+03  0.60000494373E+02 0.  0.
    9000007    2    3    3    0    0  0.32510495544E+01 -0.17169173097E+02  0.13592782457E+03  0.14960560713E+03  0.60000953039E+02 0.  0.
          5    1    4    4  501    0  0.27869925851E+01  0.38290092920E+02  0.72700473916E+02  0.82348937159E+02  0.47000000000E+01 0. -1.
         -5    1    4    4    0  501 -0.60380421395E+01 -0.21120919823E+02  0.67751978999E+02  0.71379071620E+02  0.47000000000E+01 0. -1.
         12    1    5    5    0    0 -0.38296182381E+01 -0.57058618550E+01 -0.47053516157E+01  0.83284553901E+01  0.00000000000E+00 0. -1.
        -12    1    5    5    0    0  0.70806677925E+01 -0.11463311243E+02  0.14063317618E+03  0.14127715174E+03  0.00000000000E+00 0. -1.
<mgrwt>
<rscale>  0 0.12500090E+03</rscale>
<asrwt>0</asrwt>
<pdfrwt beam="1">  1       21 0.44593372E-01 0.12500090E+03</pdfrwt>
<pdfrwt beam="2">  1       21 0.20733339E-02 0.12500090E+03</pdfrwt>
<totfact> 0.55179026E+06</totfact>
</mgrwt>
</event>
<event>
 9    1  0.4458519E-002  0.1250002E+03  0.7818608E-02  0.1235069E+00
         21   -1    0    0  503  502  0.00000000000E+00  0.00000000000E+00  0.15147030988E+03  0.15147030988E+03  0.00000000000E+00 0.  1.
         21   -1    0    0  502  503 -0.00000000000E+00 -0.00000000000E+00 -0.25788953981E+02  0.25788953981E+02  0.00000000000E+00 0.  1.
         25    2    1    2    0    0  0.00000000000E+00  0.00000000000E+00  0.12568135590E+03  0.17725926386E+03  0.12500017362E+03 0.  0.
    9000006    2    3    3    0    0  0.30339577469E+01 -0.13899080802E+02  0.77292235595E+02  0.98875651445E+02  0.59999295153E+02 0.  0.
    9000007    2    3    3    0    0 -0.30339577469E+01  0.13899080802E+02  0.48389120305E+02  0.78383612417E+02  0.60000786535E+02 0.  0.
          5    1    4    4  501    0 -0.11234559200E+02  0.10435777351E+02 -0.44590382857E+00  0.16043989515E+02  0.47000000000E+01 0.  1.
         -5    1    4    4    0  501  0.14268516947E+02 -0.24334858152E+02  0.77738139423E+02  0.82831661930E+02  0.47000000000E+01 0.  1.
         12    1    5    5    0    0 -0.28685573634E+02 -0.48908750637E+01  0.16991110988E+02  0.33696893717E+02  0.00000000000E+00 0. -1.
        -12    1    5    5    0    0  0.25651615887E+02  0.18789955865E+02  0.31398009317E+02  0.44686718699E+02  0.00000000000E+00 0. -1.
<mgrwt>
<rscale>  0 0.12500017E+03</rscale>
<asrwt>0</asrwt>
<pdfrwt beam="1">  1       21 0.23303124E-01 0.12500017E+03</pdfrwt>
<pdfrwt beam="2">  1       21 0.39675315E-02 0.12500017E+03</pdfrwt>
<totfact> 0.67467047E+06</totfact>
</mgrwt>
</event>
<event>
 9    1  0.4458519E-002  0.1250085E+03  0.7818608E-02  0.1235056E+00
         21   -1    0    0  503  502  0.00000000000E+00  0.00000000000E+00  0.47587476282E+03  0.47587476282E+03  0.00000000000E+00 0.  1.
         21   -1    0    0  502  503 -0.00000000000E+00 -0.00000000000E+00 -0.82096793413E+01  0.82096793413E+01  0.00000000000E+00 0.  1.
         25    2    1    2    0    0  0.13322676296E-14 -0.17763568394E-14  0.46766508348E+03  0.48408444216E+03  0.12500846706E+03 0.  0.
    9000006    2    3    3    0    0 -0.28099693267E+01  0.11615377106E+02  0.18424431362E+03  0.19413600908E+03  0.60000083391E+02 0.  0.
    9000007    2    3    3    0    0  0.28099693267E+01 -0.11615377106E+02  0.28342076986E+03  0.28994843308E+03  0.59999567888E+02 0.  0.
          5    1    4    4  501    0  0.16947445754E+02 -0.57306847394E+01  0.18173088385E+02  0.25930827342E+02  0.47000000000E+01 0.  1.
         -5    1    4    4    0  501 -0.19757415081E+02  0.17346061845E+02  0.16607122524E+03  0.16820518174E+03  0.47000000000E+01 0.  1.
         12    1    5    5    0    0  0.22532033432E+01  0.11005095372E+02  0.84714995147E+01  0.14069660745E+02  0.00000000000E+00 0.  1.
        -12    1    5    5    0    0  0.55676598355E+00 -0.22620472479E+02  0.27494927034E+03  0.27587877234E+03  0.00000000000E+00 0.  1.
<mgrwt>
<rscale>  0 0.12500847E+03</rscale>
<asrwt>0</asrwt>
<pdfrwt beam="1">  1       21 0.73211481E-01 0.12500847E+03</pdfrwt>
<pdfrwt beam="2">  1       21 0.12630280E-02 0.12500847E+03</pdfrwt>
<totfact> 0.42911527E+06</totfact>
</mgrwt>
</event>
<event>
 9    1  0.4458519E-002  0.1249654E+03  0.7818608E-02  0.1235123E+00
         21   -1    0    0  503  502  0.00000000000E+00  0.00000000000E+00  0.95609586464E+02  0.95609586464E+02  0.00000000000E+00 0. -1.
         21   -1    0    0  502  503 -0.00000000000E+00 -0.00000000000E+00 -0.40833650494E+02  0.40833650494E+02  0.00000000000E+00 0. -1.
         25    2    1    2    0    0  0.00000000000E+00 -0.44408920985E-15  0.54775935970E+02  0.13644323696E+03  0.12496541021E+03 0.  0.
    9000006    2    3    3    0    0 -0.16878586299E+02 -0.24759881974E+01  0.23465422027E+02  0.66645337402E+02  0.59999648111E+02 0.  0.
    9000007    2    3    3    0    0  0.16878586299E+02  0.24759881974E+01  0.31310513943E+02  0.69797899556E+02  0.60003177466E+02 0.  0.
          5    1    4    4  501    0 -0.14593834964E+02  0.34036251485E+01  0.42897162484E+02  0.45681738499E+02  0.47000000000E+01 0.  1.
         -5    1    4    4    0  501 -0.22847513350E+01 -0.58796133459E+01 -0.19431740457E+02  0.20963598903E+02  0.47000000000E+01 0.  1.
         12    1    5    5    0    0  0.63082603450E+00 -0.96424521838E+01  0.44551205952E+02  0.45587111965E+02  0.00000000000E+00 0.  1.
        -12    1    5    5    0    0  0.16247760264E+02  0.12118440381E+02 -0.13240692009E+02  0.24210787590E+02  0.00000000000E+00 0.  1.
<mgrwt>
<rscale>  0 0.12496541E+03</rscale>
<asrwt>0</asrwt>
<pdfrwt beam="1">  1       21 0.14709167E-01 0.12496541E+03</pdfrwt>
<pdfrwt beam="2">  1       21 0.62821001E-02 0.12496541E+03</pdfrwt>
<totfact> 0.72569932E+06</totfact>
</mgrwt>
</event>
<event>
 9    1  0.4458519E-002  0.1249969E+03  0.7818608E-02  0.1235074E+00
         21   -1    0    0  503  502  0.00000000000E+00  0.00000000000E+00  0.37992070883E+02  0.37992070883E+02  0.00000000000E+00 0.  1.
         21   -1    0    0  502  503 -0.00000000000E+00 -0.00000000000E+00 -0.10281240202E+03  0.10281240202E+03  0.00000000000E+00 0.  1.
         25    2    1    2    0    0 -0.17763568394E-14  0.35527136788E-14 -0.64820331134E+02  0.14080447290E+03  0.12499689700E+03 0.  0.
    9000006    2    3    3    0    0  0.15361004774E+02 -0.50696391686E+01 -0.24880287315E+02  0.66938078346E+02  0.60000132724E+02 0.  0.
    9000007    2    3    3    0    0 -0.15361004774E+02  0.50696391686E+01 -0.39940043819E+02  0.73866394554E+02  0.59994795068E+02 0.  0.
          5    1    4    4  501    0 -0.94743725099E+01  0.16640719495E+02 -0.27134640999E+02  0.33541854777E+02  0.47000000000E+01 0. -1.
         -5    1    4    4    0  501  0.24835377284E+02 -0.21710358664E+02  0.22543536837E+01  0.33396223569E+02  0.47000000000E+01 0. -1.
         12    1    5    5    0    0  0.53768673481E+01 -0.23342627411E+02 -0.53730159184E+01  0.24549098904E+02  0.00000000000E+00 0.  1.
        -12    1    5    5    0    0 -0.20737872122E+02  0.28412266580E+02 -0.34567027901E+02  0.49317295650E+02  0.00000000000E+00 0.  1.
<mgrwt>
<rscale>  0 0.12499690E+03</rscale>
<asrwt>0</asrwt>
<pdfrwt beam="1">  1       21 0.58449342E-02 0.12499690E+03</pdfrwt>
<pdfrwt beam="2">  1       21 0.15817292E-01 0.12499690E+03</pdfrwt>
<totfact> 0.71940146E+06</totfact>
</mgrwt>
</event>
<event>
 9    1  0.4458519E-002  0.1249836E+03  0.7818608E-02  0.1235095E+00
         21   -1    0    0  503  502  0.00000000000E+00  0.00000000000E+00  0.69251820443E+03  0.69251820443E+03  0.00000000000E+00 0.  1.
         21   -1    0    0  502  503 -0.00000000000E+00 -0.00000000000E+00 -0.56391686690E+01  0.56391686690E+01  0.00000000000E+00 0.  1.
         25    2    1    2    0    0  0.00000000000E+00  0.00000000000E+00  0.68687903576E+03  0.69815737310E+03  0.12498363031E+03 0.  0.
    9000006    2    3    3    0    0  0.14358811247E+02 -0.83396448276E+01  0.37378018580E+03  0.37892925864E+03  0.60000255194E+02 0.  0.
    9000007    2    3    3    0    0 -0.14358811247E+02  0.83396448276E+01  0.31309884997E+03  0.31922811446E+03  0.59999783962E+02 0.  0.
          5    1    4    4  501    0 -0.95831593123E+01  0.13673912679E+02  0.25781247841E+03  0.25839538861E+03  0.47000000000E+01 0. -1.
         -5    1    4    4    0  501  0.23941970559E+02 -0.22013557506E+02  0.11596770739E+03  0.12053387003E+03  0.47000000000E+01 0. -1.
         12    1    5    5    0    0 -0.36889623313E+02  0.82235997769E+01  0.15552316393E+03  0.16004976232E+03  0.00000000000E+00 0.  1.
        -12    1    5    5    0    0  0.22530812066E+02  0.11604505070E+00  0.15757568604E+03  0.15917835214E+03  0.00000000000E+00 0.  1.
<mgrwt>
<rscale>  0 0.12498363E+03</rscale>
<asrwt>0</asrwt>
<pdfrwt beam="1">  1       21 0.10654119E+00 0.12498363E+03</pdfrwt>
<pdfrwt beam="2">  1       21 0.86756496E-03 0.12498363E+03</pdfrwt>
<totfact> 0.32994705E+06</totfact>
</mgrwt>
</event>
<event>
 9    1  0.4458519E-002  0.1250002E+03  0.7818608E-02  0.1235069E+00
         21   -1    0    0  503  502  0.00000000000E+00  0.00000000000E+00  0.52020757038E+02  0.52020757038E+02  0.00000000000E+00 0. -1.
         21   -1    0    0  502  503 -0.00000000000E+00 -0.00000000000E+00 -0.75090464825E+02  0.75090464825E+02  0.00000000000E+00 0. -1.
         25    2    1    2    0    0 -0.17763568394E-14  0.00000000000E+00 -0.23069707787E+02  0.12711122186E+03  0.12500020522E+03 0.  0.
    9000006    2    3    3    0    0  0.46081497199E+01  0.99901686665E+01  0.23037101929E+01  0.61044082898E+02  0.60000287186E+02 0.  0.
    9000007    2    3    3    0    0 -0.46081497199E+01 -0.99901686665E+01 -0.25373417980E+02  0.66067138965E+02  0.60000149976E+02 0.  0.
          5    1    4    4  501    0 -0.15714633917E+02 -0.39397194478E+01  0.23001466119E+02  0.28524174872E+02  0.47000000000E+01 0. -1.
         -5    1    4    4    0  501  0.20322783637E+02  0.13929888114E+02 -0.20697755927E+02  0.32519908026E+02  0.47000000000E+01 0. -1.
         12    1    5    5    0    0 -0.29627473970E+02  0.72847453361E+01 -0.10947339346E+02  0.32414486996E+02  0.00000000000E+00 0. -1.
        -12    1    5    5    0    0  0.25019324251E+02 -0.17274914003E+02 -0.14426078634E+02  0.33652651968E+02  0.00000000000E+00 0. -1.
<mgrwt>
<rscale>  0 0.12500021E+03</rscale>
<asrwt>0</asrwt>
<pdfrwt beam="1">  1       21 0.80031934E-02 0.12500021E+03</pdfrwt>
<pdfrwt beam="2">  1       21 0.11552379E-01 0.12500021E+03</pdfrwt>
<totfact> 0.73753617E+06</totfact>
</mgrwt>
</event>
<event>
 9    1  0.4458519E-002  0.1249840E+03  0.7818608E-02  0.1235094E+00
         21   -1    0    0  503  502  0.00000000000E+00  0.00000000000E+00  0.18522920162E+03  0.18522920162E+03  0.00000000000E+00 0.  1.
         21   -1    0    0  502  503 -0.00000000000E+00 -0.00000000000E+00 -0.21083327003E+02  0.21083327003E+02  0.00000000000E+00 0.  1.
         25    2    1    2    0    0  0.00000000000E+00 -0.71054273576E-14  0.16414587462E+03  0.20631252863E+03  0.12498396422E+03 0.  0.
    9000006    2    3    3    0    0 -0.36540831788E+01 -0.16003044946E+02  0.72194667666E+02  0.95297009402E+02  0.60000001584E+02 0.  0.
    9000007    2    3    3    0    0  0.36540831788E+01  0.16003044946E+02  0.91951206954E+02  0.11101551922E+03  0.59999760639E+02 0.  0.
          5    1    4    4  501    0 -0.15589068580E+02 -0.35016519178E+02  0.38441643166E+02  0.54488765850E+02  0.47000000000E+01 0.  1.
         -5    1    4    4    0  501  0.11934985401E+02  0.19013474232E+02  0.33753024500E+02  0.40808243552E+02  0.47000000000E+01 0.  1.
         12    1    5    5    0    0 -0.95901225163E+01  0.29905161569E+02  0.84964559978E+02  0.90582921076E+02  0.00000000000E+00 0.  1.
        -12    1    5    5    0    0  0.13244205695E+02 -0.13902116623E+02  0.69866469752E+01  0.20432598147E+02  0.00000000000E+00 0.  1.
<mgrwt>
<rscale>  0 0.12498396E+03</rscale>
<asrwt>0</asrwt>
<pdfrwt beam="1">  1       21 0.28496799E-01 0.12498396E+03</pdfrwt>
<pdfrwt beam="2">  1       21 0.32435889E-02 0.12498396E+03</pdfrwt>
<totfact> 0.64275676E+06</totfact>
</mgrwt>
</event>
<event>
 9    1  0.4458519E-002  0.1250046E+03  0.7818608E-02  0.1235062E+00
         21   -1    0    0  503  502  0.00000000000E+00  0.00000000000E+00  0.37201988558E+02  0.37201988558E+02  0.00000000000E+00 0.  1.
         21   -1    0    0  502  503 -0.00000000000E+00 -0.00000000000E+00 -0.10500891600E+03  0.10500891600E+03  0.00000000000E+00 0.  1.
         25    2    1    2    0    0  0.00000000000E+00  0.00000000000E+00 -0.67806927438E+02  0.14221090455E+03  0.12500464777E+03 0.  0.
    9000006    2    3    3    0    0  0.98139967831E+01  0.13026788884E+02 -0.41143428615E+02  0.74557429516E+02  0.60000140136E+02 0.  0.
    9000007    2    3    3    0    0 -0.98139967831E+01 -0.13026788884E+02 -0.26663498823E+02  0.67653475037E+02  0.60000322946E+02 0.  0.
          5    1    4    4  501    0  0.20070720490E+02  0.31768348262E+02 -0.35632800973E+02  0.51998541109E+02  0.47000000000E+01 0.  1.
         -5    1    4    4    0  501 -0.10256723707E+02 -0.18741559379E+02 -0.55106276415E+01  0.22558888407E+02  0.47000000000E+01 0.  1.
         12    1    5    5    0    0  0.54620891449E+01 -0.10081338511E+00  0.17947169538E+02  0.18760209903E+02  0.00000000000E+00 0.  1.
        -12    1    5    5    0    0 -0.15276085928E+02 -0.12925975498E+02 -0.44610668361E+02  0.48893265134E+02  0.00000000000E+00 0.  1.
<mgrwt>
<rscale>  0 0.12500465E+03</rscale>
<asrwt>0</asrwt>
<pdfrwt beam="1">  1       21 0.57233829E-02 0.12500465E+03</pdfrwt>
<pdfrwt beam="2">  1       21 0.16155218E-01 0.12500465E+03</pdfrwt>
<totfact> 0.71743484E+06</totfact>
</mgrwt>
</event>
<event>
 9    1  0.4458519E-002  0.1249995E+03  0.7818608E-02  0.1235070E+00
         21   -1    0    0  503  502  0.00000000000E+00  0.00000000000E+00  0.13631684191E+03  0.13631684191E+03  0.00000000000E+00 0. -1.
         21   -1    0    0  502  503 -0.00000000000E+00 -0.00000000000E+00 -0.28655432953E+02  0.28655432953E+02  0.00000000000E+00 0. -1.
         25    2    1    2    0    0  0.00000000000E+00  0.00000000000E+00  0.10766140896E+03  0.16497227486E+03  0.12499948998E+03 0.  0.
    9000006    2    3    3    0    0 -0.74840583085E+01 -0.10709948568E+02  0.69187461500E+02  0.92507460847E+02  0.60000094637E+02 0.  0.
    9000007    2    3    3    0    0  0.74840583085E+01  0.10709948568E+02  0.38473947457E+02  0.72464814017E+02  0.60001587566E+02 0.  0.
          5    1    4    4  501    0  0.17235414858E+02 -0.11958906402E+02  0.62997843006E+02  0.66564954676E+02  0.47000000000E+01 0. -1.
         -5    1    4    4    0  501 -0.24719473166E+02  0.12489578334E+01  0.61896184937E+01  0.25942506170E+02  0.47000000000E+01 0. -1.
         12    1    5    5    0    0 -0.23872752574E+02  0.10694208960E+02  0.50630803988E+01  0.26644121376E+02  0.00000000000E+00 0.  1.
        -12    1    5    5    0    0  0.31356810883E+02  0.15739607626E-01  0.33410867058E+02  0.45820692641E+02  0.00000000000E+00 0.  1.
<mgrwt>
<rscale>  0 0.12499949E+03</rscale>
<asrwt>0</asrwt>
<pdfrwt beam="1">  1       21 0.20971822E-01 0.12499949E+03</pdfrwt>
<pdfrwt beam="2">  1       21 0.44085282E-02 0.12499949E+03</pdfrwt>
<totfact> 0.68917877E+06</totfact>
</mgrwt>
</event>
<event>
 9    1  0.4458519E-002  0.1249948E+03  0.7818608E-02  0.1235077E+00
         21   -1    0    0  503  502  0.00000000000E+00  0.00000000000E+00  0.23594814584E+01  0.23594814584E+01  0.00000000000E+00 0. -1.
         21   -1    0    0  502  503 -0.00000000000E+00 -0.00000000000E+00 -0.16554160660E+04  0.16554160660E+04  0.00000000000E+00 0. -1.
         25    2    1    2    0    0  0.00000000000E+00  0.00000000000E+00 -0.16530565846E+04  0.16577755475E+04  0.12499477611E+03 0.  0.
    9000006    2    3    3    0    0  0.13719930968E+02  0.91198916415E+01 -0.74842165092E+03  0.75100332923E+03  0.59996866814E+02 0.  0.
    9000007    2    3    3    0    0 -0.13719930968E+02 -0.91198916415E+01 -0.90463493366E+03  0.90677221826E+03  0.60000697356E+02 0.  0.
          5    1    4    4  501    0 -0.80032573868E-01 -0.13928060193E+02 -0.51728521051E+02  0.53776641361E+02  0.47000000000E+01 0. -1.
         -5    1    4    4    0  501  0.13799963542E+02  0.23047951835E+02 -0.69669312986E+03  0.69722668787E+03  0.47000000000E+01 0. -1.
         12    1    5    5    0    0  0.98579290710E+01  0.41626651766E+01 -0.72779238004E+03  0.72787104283E+03  0.00000000000E+00 0. -1.
        -12    1    5    5    0    0 -0.23577860039E+02 -0.13282556818E+02 -0.17684255361E+03  0.17890117542E+03  0.00000000000E+00 0. -1.
<mgrwt>
<rscale>  0 0.12499478E+03</rscale>
<asrwt>0</asrwt>
<pdfrwt beam="1">  1       21 0.36299764E-03 0.12499478E+03</pdfrwt>
<pdfrwt beam="2">  1       21 0.25467905E+00 0.12499478E+03</pdfrwt>
<totfact> 0.11808406E+06</totfact>
</mgrwt>
</event>
<event>
 9    1  0.4458519E-002  0.1249994E+03  0.7818608E-02  0.1235070E+00
         21   -1    0    0  503  502  0.00000000000E+00  0.00000000000E+00  0.39700932513E+03  0.39700932513E+03  0.00000000000E+00 0.  1.
         21   -1    0    0  502  503 -0.00000000000E+00 -0.00000000000E+00 -0.98390998635E+01  0.98390998635E+01  0.00000000000E+00 0.  1.
         25    2    1    2    0    0  0.00000000000E+00  0.00000000000E+00  0.38717022527E+03  0.40684842499E+03  0.12499943035E+03 0.  0.
    9000006    2    3    3    0    0 -0.72894474242E+01  0.15850642225E+02  0.18921017214E+03  0.19926098553E+03  0.60000601761E+02 0.  0.
    9000007    2    3    3    0    0  0.72894474242E+01 -0.15850642225E+02  0.19796005313E+03  0.20758743946E+03  0.59999862376E+02 0.  0.
          5    1    4    4  501    0  0.12747387882E+02  0.31845564777E+02  0.83685988144E+02  0.90565283113E+02  0.47000000000E+01 0.  1.
         -5    1    4    4    0  501 -0.20036835306E+02 -0.15994922552E+02  0.10552418399E+03  0.10869570242E+03  0.47000000000E+01 0.  1.
         12    1    5    5    0    0 -0.25544763917E+02 -0.10806252273E+02  0.11323993852E+03  0.11658727944E+03  0.00000000000E+00 0. -1.
        -12    1    5    5    0    0  0.32834211341E+02 -0.50443899515E+01  0.84720114610E+02  0.91000160022E+02  0.00000000000E+00 0. -1.
<mgrwt>
<rscale>  0 0.12499943E+03</rscale>
<asrwt>0</asrwt>
<pdfrwt beam="1">  1       21 0.61078345E-01 0.12499943E+03</pdfrwt>
<pdfrwt beam="2">  1       21 0.15137080E-02 0.12499943E+03</pdfrwt>
<totfact> 0.47591078E+06</totfact>
</mgrwt>
</event>
<event>
 9    1  0.4458519E-002  0.1249957E+03  0.7818608E-02  0.1235076E+00
         21   -1    0    0  503  502  0.00000000000E+00  0.00000000000E+00  0.35883570355E+03  0.35883570355E+03  0.00000000000E+00 0.  1.
         21   -1    0    0  502  503 -0.00000000000E+00 -0.00000000000E+00 -0.10885144559E+02  0.10885144559E+02  0.00000000000E+00 0.  1.
         25    2    1    2    0    0  0.00000000000E+00 -0.17763568394E-14  0.34795055899E+03  0.36972084811E+03  0.12499565602E+03 0.  0.
    9000006    2    3    3    0    0 -0.11957745735E+02  0.12020590606E+02  0.16129039061E+03  0.17292224649E+03  0.60000257881E+02 0.  0.
    9000007    2    3    3    0    0  0.11957745735E+02 -0.12020590606E+02  0.18666016838E+03  0.19679860162E+03  0.60001573801E+02 0.  0.
          5    1    4    4  501    0 -0.30526807222E+02  0.16802690877E+02  0.13790844472E+03  0.14232022170E+03  0.47000000000E+01 0. -1.
         -5    1    4    4    0  501  0.18569061488E+02 -0.47821002715E+01  0.23381945896E+02  0.30602024793E+02  0.47000000000E+01 0. -1.
         12    1    5    5    0    0  0.47080599990E+01 -0.21498909112E+02  0.18299745784E+03  0.18431613738E+03  0.00000000000E+00 0.  1.
        -12    1    5    5    0    0  0.72496857356E+01  0.94783185056E+01  0.36627105333E+01  0.12482464236E+02  0.00000000000E+00 0.  1.
<mgrwt>
<rscale>  0 0.12499566E+03</rscale>
<asrwt>0</asrwt>
<pdfrwt beam="1">  1       21 0.55205484E-01 0.12499566E+03</pdfrwt>
<pdfrwt beam="2">  1       21 0.16746379E-02 0.12499566E+03</pdfrwt>
<totfact> 0.50119613E+06</totfact>
</mgrwt>
</event>
<event>
 9    1  0.4458519E-002  0.1250002E+03  0.7818608E-02  0.1235069E+00
         21   -1    0    0  503  502  0.00000000000E+00  0.00000000000E+00  0.16551540628E+02  0.16551540628E+02  0.00000000000E+00 0. -1.
         21   -1    0    0  502  503 -0.00000000000E+00 -0.00000000000E+00 -0.23600599627E+03  0.23600599627E+03  0.00000000000E+00 0. -1.
         25    2    1    2    0    0  0.00000000000E+00  0.00000000000E+00 -0.21945445564E+03  0.25255753689E+03  0.12500020537E+03 0.  0.
    9000006    2    3    3    0    0  0.52863060958E+01  0.16642170637E+02 -0.10743202729E+03  0.12428374771E+03  0.59999188170E+02 0.  0.
    9000007    2    3    3    0    0 -0.52863060958E+01 -0.16642170637E+02 -0.11202242835E+03  0.12827378919E+03  0.60001947163E+02 0.  0.
          5    1    4    4  501    0  0.23032274856E+02  0.19179991076E+02 -0.23625811344E+02  0.38452915422E+02  0.47000000000E+01 0. -1.
         -5    1    4    4    0  501 -0.17745968761E+02 -0.25378204389E+01 -0.83806215944E+02  0.85830832285E+02  0.47000000000E+01 0. -1.
         12    1    5    5    0    0 -0.12759750673E+02  0.13663356483E+02 -0.84865292508E+02  0.86900036939E+02  0.00000000000E+00 0.  1.
        -12    1    5    5    0    0  0.74734445776E+01 -0.30305527121E+02 -0.27157135844E+02  0.41373752249E+02  0.00000000000E+00 0.  1.
<mgrwt>
<rscale>  0 0.12500021E+03</rscale>
<asrwt>0</asrwt>
<pdfrwt beam="1">  1       21 0.25463911E-02 0.12500021E+03</pdfrwt>
<pdfrwt beam="2">  1       21 0.36308611E-01 0.12500021E+03</pdfrwt>
<totfact> 0.59637926E+06</totfact>
</mgrwt>
</event>
<event>
 9    1  0.4458519E-002  0.1250044E+03  0.7818608E-02  0.1235062E+00
         21   -1    0    0  503  502  0.00000000000E+00  0.00000000000E+00  0.11509578334E+03  0.11509578334E+03  0.00000000000E+00 0. -1.
         21   -1    0    0  502  503 -0.00000000000E+00 -0.00000000000E+00 -0.33941533865E+02  0.33941533865E+02  0.00000000000E+00 0. -1.
         25    2    1    2    0    0  0.00000000000E+00  0.00000000000E+00  0.81154249480E+02  0.14903731721E+03  0.12500443877E+03 0.  0.
    9000006    2    3    3    0    0 -0.14445875983E+02  0.20263515676E+01  0.29036204352E+02  0.68234681202E+02  0.60000676013E+02 0.  0.
    9000007    2    3    3    0    0  0.14445875983E+02 -0.20263515676E+01  0.52118045128E+02  0.80802636008E+02  0.59999882702E+02 0.  0.
          5    1    4    4  501    0 -0.17363850209E+02  0.28919224267E+02  0.19020594696E+02  0.39008945755E+02  0.47000000000E+01 0. -1.
         -5    1    4    4    0  501  0.29179742260E+01 -0.26892872700E+02  0.10015609656E+02  0.29225735447E+02  0.47000000000E+01 0. -1.
         12    1    5    5    0    0  0.36933048909E+02  0.55788691402E+01  0.37477457534E+02  0.52912509918E+02  0.00000000000E+00 0. -1.
        -12    1    5    5    0    0 -0.22487172926E+02 -0.76052207078E+01  0.14640587594E+02  0.27890126090E+02  0.00000000000E+00 0. -1.
<mgrwt>
<rscale>  0 0.12500444E+03</rscale>
<asrwt>0</asrwt>
<pdfrwt beam="1">  1       21 0.17707043E-01 0.12500444E+03</pdfrwt>
<pdfrwt beam="2">  1       21 0.52217745E-02 0.12500444E+03</pdfrwt>
<totfact> 0.70872333E+06</totfact>
</mgrwt>
</event>
<event>
 9    1  0.4458519E-002  0.1249961E+03  0.7818608E-02  0.1235075E+00
         21   -1    0    0  503  502  0.00000000000E+00  0.00000000000E+00  0.77313267990E+01  0.77313267990E+01  0.00000000000E+00 0. -1.
         21   -1    0    0  502  503 -0.00000000000E+00 -0.00000000000E+00 -0.50521823311E+03  0.50521823311E+03  0.00000000000E+00 0. -1.
         25    2    1    2    0    0  0.17763568394E-14 -0.17763568394E-14 -0.49748690631E+03  0.51294955991E+03  0.12499611618E+03 0.  0.
    9000006    2    3    3    0    0  0.55541225575E+01  0.11578477632E+02 -0.19999561810E+03  0.20919652434E+03  0.60000242614E+02 0.  0.
    9000007    2    3    3    0    0 -0.55541225575E+01 -0.11578477632E+02 -0.29749128820E+03  0.30375303557E+03  0.59999421966E+02 0.  0.
          5    1    4    4  501    0 -0.53323914988E+01 -0.12096775487E+02 -0.16353326141E+03  0.16413404267E+03  0.47000000000E+01 0. -1.
         -5    1    4    4    0  501  0.10886514056E+02  0.23675253118E+02 -0.36462356695E+02  0.45062481670E+02  0.47000000000E+01 0. -1.
         12    1    5    5    0    0  0.25876010053E+02 -0.14511125115E+02 -0.15381471640E+03  0.15664963335E+03  0.00000000000E+00 0. -1.
        -12    1    5    5    0    0 -0.31430132610E+02  0.29326474834E+01 -0.14367657180E+03  0.14710340221E+03  0.00000000000E+00 0. -1.
<mgrwt>
<rscale>  0 0.12499612E+03</rscale>
<asrwt>0</asrwt>
<pdfrwt beam="1">  1       21 0.11894347E-02 0.12499612E+03</pdfrwt>
<pdfrwt beam="2">  1       21 0.77725893E-01 0.12499612E+03</pdfrwt>
<totfact> 0.41354377E+06</totfact>
</mgrwt>
</event>
<event>
 9    1  0.4458519E-002  0.1250001E+03  0.7818608E-02  0.1235069E+00
         21   -1    0    0  503  502  0.00000000000E+00  0.00000000000E+00  0.79093637760E+01  0.79093637760E+01  0.00000000000E+00 0. -1.
         21   -1    0    0  502  503 -0.00000000000E+00 -0.00000000000E+00 -0.49387704330E+03  0.49387704330E+03  0.00000000000E+00 0. -1.
         25    2    1    2    0    0  0.00000000000E+00  0.17763568394E-14 -0.48596767952E+03  0.50178640708E+03  0.12500005114E+03 0.  0.
    9000006    2    3    3    0    0 -0.60460004131E+01 -0.69896338088E+01 -0.30263655548E+03  0.30866547485E+03  0.60000679586E+02 0.  0.
    9000007    2    3    3    0    0  0.60460004131E+01  0.69896338088E+01 -0.18333112404E+03  0.19312093223E+03  0.59999869318E+02 0.  0.
          5    1    4    4  501    0  0.18439468897E+02  0.10045177480E+02 -0.21290011143E+03  0.21398473555E+03  0.47000000000E+01 0. -1.
         -5    1    4    4    0  501 -0.24485469310E+02 -0.17034811288E+02 -0.89736444052E+02  0.94680739298E+02  0.47000000000E+01 0. -1.
         12    1    5    5    0    0  0.27680300878E+02 -0.13545768644E+02 -0.97513362732E+02  0.10226701724E+03  0.00000000000E+00 0. -1.
        -12    1    5    5    0    0 -0.21634300465E+02  0.20535402453E+02 -0.85817761313E+02  0.90853914980E+02  0.00000000000E+00 0. -1.
<mgrwt>
<rscale>  0 0.12500005E+03</rscale>
<asrwt>0</asrwt>
<pdfrwt beam="1">  1       21 0.12168254E-02 0.12500005E+03</pdfrwt>
<pdfrwt beam="2">  1       21 0.75981073E-01 0.12500005E+03</pdfrwt>
<totfact> 0.41947305E+06</totfact>
</mgrwt>
</event>
<event>
 9    1  0.4458519E-002  0.1250060E+03  0.7818608E-02  0.1235060E+00
         21   -1    0    0  503  502  0.00000000000E+00  0.00000000000E+00  0.19608289749E+02  0.19608289749E+02  0.00000000000E+00 0.  1.
         21   -1    0    0  502  503 -0.00000000000E+00 -0.00000000000E+00 -0.19923327386E+03  0.19923327386E+03  0.00000000000E+00 0.  1.
         25    2    1    2    0    0  0.26645352591E-14  0.00000000000E+00 -0.17962498411E+03  0.21884156361E+03  0.12500598004E+03 0.  0.
    9000006    2    3    3    0    0  0.16280328894E+01 -0.16472821350E+02 -0.99804834429E+02  0.11762255099E+03  0.60000459921E+02 0.  0.
    9000007    2    3    3    0    0 -0.16280328894E+01  0.16472821350E+02 -0.79820149679E+02  0.10121901262E+03  0.60000232389E+02 0.  0.
          5    1    4    4  501    0  0.52529498098E+01  0.15423557379E+02 -0.53978237637E+01  0.17796238515E+02  0.47000000000E+01 0.  1.
         -5    1    4    4    0  501 -0.36249169205E+01 -0.31896378729E+02 -0.94407010665E+02  0.99826312470E+02  0.47000000000E+01 0.  1.
         12    1    5    5    0    0  0.28605743713E+02  0.11818904211E+02 -0.32566739269E+02  0.44928471783E+02  0.00000000000E+00 0.  1.
        -12    1    5    5    0    0 -0.30233776603E+02  0.46539171396E+01 -0.47253410410E+02  0.56290540837E+02  0.00000000000E+00 0.  1.
<mgrwt>
<rscale>  0 0.12500598E+03</rscale>
<asrwt>0</asrwt>
<pdfrwt beam="1">  1       21 0.30166599E-02 0.12500598E+03</pdfrwt>
<pdfrwt beam="2">  1       21 0.30651274E-01 0.12500598E+03</pdfrwt>
<totfact> 0.62931626E+06</totfact>
</mgrwt>
</event>
<event>
 9    1  0.4458519E-002  0.1249971E+03  0.7818608E-02  0.1235074E+00
         21   -1    0    0  503  502  0.00000000000E+00  0.00000000000E+00  0.69025196153E+03  0.69025196153E+03  0.00000000000E+00 0.  1.
         21   -1    0    0  502  503 -0.00000000000E+00 -0.00000000000E+00 -0.56589061452E+01  0.56589061452E+01  0.00000000000E+00 0.  1.
         25    2    1    2    0    0  0.00000000000E+00 -0.17763568394E-14  0.68459305538E+03  0.69591086767E+03  0.12499713704E+03 0.  0.
    9000006    2    3    3    0    0  0.81195286978E+01  0.14796898702E+02  0.36802042563E+03  0.37326083320E+03  0.59997841296E+02 0.  0.
    9000007    2    3    3    0    0 -0.81195286978E+01 -0.14796898702E+02  0.31657262975E+03  0.32265003448E+03  0.59999499012E+02 0.  0.
          5    1    4    4  501    0 -0.24841085094E+02  0.13458237974E+02  0.15016249262E+03  0.15286944714E+03  0.47000000000E+01 0.  1.
         -5    1    4    4    0  501  0.32960613791E+02  0.13386607278E+01  0.21785793301E+03  0.22039138606E+03  0.47000000000E+01 0.  1.
         12    1    5    5    0    0  0.48852365152E+01  0.14642767218E+02  0.25533672421E+02  0.29836966919E+02  0.00000000000E+00 0.  1.
        -12    1    5    5    0    0 -0.13004765213E+02 -0.29439665920E+02  0.29103895733E+03  0.29281306756E+03  0.00000000000E+00 0.  1.
<mgrwt>
<rscale>  0 0.12499714E+03</rscale>
<asrwt>0</asrwt>
<pdfrwt beam="1">  1       21 0.10619254E+00 0.12499714E+03</pdfrwt>
<pdfrwt beam="2">  1       21 0.87060149E-03 0.12499714E+03</pdfrwt>
<totfact> 0.33070750E+06</totfact>
</mgrwt>
</event>
<event>
 9    1  0.4458519E-002  0.1249988E+03  0.7818608E-02  0.1235071E+00
         21   -1    0    0  503  502  0.00000000000E+00  0.00000000000E+00  0.59784308897E+01  0.59784308897E+01  0.00000000000E+00 0.  1.
         21   -1    0    0  502  503 -0.00000000000E+00 -0.00000000000E+00 -0.65337819837E+03  0.65337819837E+03  0.00000000000E+00 0.  1.
         25    2    1    2    0    0  0.00000000000E+00  0.17763568394E-14 -0.64739976748E+03  0.65935662926E+03  0.12499882246E+03 0.  0.
    9000006    2    3    3    0    0  0.94199185173E+01  0.53599274248E+01 -0.25123732732E+03  0.25852967751E+03  0.59999465209E+02 0.  0.
    9000007    2    3    3    0    0 -0.94199185173E+01 -0.53599274248E+01 -0.39616244016E+03  0.40082695176E+03  0.60000854761E+02 0.  0.
          5    1    4    4  501    0  0.28102186844E+02  0.45005885035E+01 -0.21954363024E+03  0.22143053940E+03  0.47000000000E+01 0. -1.
         -5    1    4    4    0  501 -0.18682268327E+02  0.85933892127E+00 -0.31693697083E+02  0.37099138103E+02  0.47000000000E+01 0. -1.
         12    1    5    5    0    0 -0.20927573516E+02 -0.20089503045E+02 -0.34732989058E+03  0.34853924364E+03  0.00000000000E+00 0.  1.
        -12    1    5    5    0    0  0.11507654999E+02  0.14729575620E+02 -0.48832549585E+02  0.52287708121E+02  0.00000000000E+00 0.  1.
<mgrwt>
<rscale>  0 0.12499882E+03</rscale>
<asrwt>0</asrwt>
<pdfrwt beam="1">  1       21 0.91975863E-03 0.12499882E+03</pdfrwt>
<pdfrwt beam="2">  1       21 0.10051972E+00 0.12499882E+03</pdfrwt>
<totfact> 0.34537584E+06</totfact>
</mgrwt>
</event>
<event>
 9    1  0.4458519E-002  0.1250005E+03  0.7818608E-02  0.1235068E+00
         21   -1    0    0  503  502  0.00000000000E+00  0.00000000000E+00  0.11686850700E+03  0.11686850700E+03  0.00000000000E+00 0. -1.
         21   -1    0    0  502  503 -0.00000000000E+00 -0.00000000000E+00 -0.33424584268E+02  0.33424584268E+02  0.00000000000E+00 0. -1.
         25    2    1    2    0    0  0.88817841970E-15 -0.35527136788E-14  0.83443922728E+02  0.15029309126E+03  0.12500050017E+03 0.  0.
    9000006    2    3    3    0    0 -0.14589069708E+01  0.41813968408E+01  0.62075922723E+02  0.86446799194E+02  0.60000136832E+02 0.  0.
    9000007    2    3    3    0    0  0.14589069708E+01 -0.41813968408E+01  0.21368000004E+02  0.63846292070E+02  0.60001209137E+02 0.  0.
          5    1    4    4  501    0  0.65009505683E-01 -0.25431288882E+01  0.72723136283E+02  0.72919244933E+02  0.47000000000E+01 0. -1.
         -5    1    4    4    0  501 -0.15239164765E+01  0.67245257290E+01 -0.10647213559E+02  0.13527554261E+02  0.47000000000E+01 0. -1.
         12    1    5    5    0    0 -0.12270428091E+02  0.24819381081E+02  0.13531954218E+02  0.30816860121E+02  0.00000000000E+00 0. -1.
        -12    1    5    5    0    0  0.13729335062E+02 -0.29000777922E+02  0.78360457861E+01  0.33029431949E+02  0.00000000000E+00 0. -1.
<mgrwt>
<rscale>  0 0.12500050E+03</rscale>
<asrwt>0</asrwt>
<pdfrwt beam="1">  1       21 0.17979770E-01 0.12500050E+03</pdfrwt>
<pdfrwt beam="2">  1       21 0.51422438E-02 0.12500050E+03</pdfrwt>
<totfact> 0.70721503E+06</totfact>
</mgrwt>
</event>
<event>
 9    1  0.4458519E-002  0.1250017E+03  0.7818608E-02  0.1235067E+00
         21   -1    0    0  503  502  0.00000000000E+00  0.00000000000E+00  0.52629159639E+03  0.52629159639E+03  0.00000000000E+00 0. -1.
         21   -1    0    0  502  503 -0.00000000000E+00 -0.00000000000E+00 -0.74224227394E+01  0.74224227394E+01  0.00000000000E+00 0. -1.
         25    2    1    2    0    0 -0.26645352591E-14 -0.31086244690E-14  0.51886917365E+03  0.53371401913E+03  0.12500173939E+03 0.  0.
    9000006    2    3    3    0    0  0.20865088099E+01  0.32786049548E+01  0.18657850641E+03  0.19602743687E+03  0.60000951508E+02 0.  0.
    9000007    2    3    3    0    0 -0.20865088099E+01 -0.32786049548E+01  0.33229066724E+03  0.33768658226E+03  0.60000312781E+02 0.  0.
          5    1    4    4  501    0  0.69576289491E+01  0.61514417546E+01  0.11710977370E+01  0.10474268765E+02  0.47000000000E+01 0. -1.
         -5    1    4    4    0  501 -0.48711201392E+01 -0.28728367998E+01  0.18540740867E+03  0.18555316810E+03  0.47000000000E+01 0. -1.
         12    1    5    5    0    0  0.17074573798E+02 -0.22077072090E+02  0.99068139263E+02  0.10292441110E+03  0.00000000000E+00 0.  1.
        -12    1    5    5    0    0 -0.19161082608E+02  0.18798467135E+02  0.23322252798E+03  0.23476217117E+03  0.00000000000E+00 0.  1.
<mgrwt>
<rscale>  0 0.12500174E+03</rscale>
<asrwt>0</asrwt>
<pdfrwt beam="1">  1       21 0.80967909E-01 0.12500174E+03</pdfrwt>
<pdfrwt beam="2">  1       21 0.11419116E-02 0.12500174E+03</pdfrwt>
<totfact> 0.40271049E+06</totfact>
</mgrwt>
</event>
<event>
 9    1  0.4458519E-002  0.1249893E+03  0.7818608E-02  0.1235086E+00
         21   -1    0    0  503  502  0.00000000000E+00  0.00000000000E+00  0.46710204935E+01  0.46710204935E+01  0.00000000000E+00 0.  1.
         21   -1    0    0  502  503 -0.00000000000E+00 -0.00000000000E+00 -0.83613021268E+03  0.83613021268E+03  0.00000000000E+00 0.  1.
         25    2    1    2    0    0  0.00000000000E+00  0.35527136788E-14 -0.83145919219E+03  0.84080123317E+03  0.12498930128E+03 0.  0.
    9000006    2    3    3    0    0  0.97110196111E+01 -0.73555084357E+01 -0.33149456031E+03  0.33710188267E+03  0.60005236277E+02 0.  0.
    9000007    2    3    3    0    0 -0.97110196111E+01  0.73555084357E+01 -0.49996463188E+03  0.50369935050E+03  0.59999959671E+02 0.  0.
          5    1    4    4  501    0  0.13478806220E+02 -0.29648402335E+02 -0.25732975709E+03  0.25942513344E+03  0.47000000000E+01 0.  1.
         -5    1    4    4    0  501 -0.37677866086E+01  0.22292893899E+02 -0.74164803226E+02  0.77676749236E+02  0.47000000000E+01 0.  1.
         12    1    5    5    0    0 -0.24506486415E+02 -0.18127696203E+02 -0.20292336202E+03  0.20520007822E+03  0.00000000000E+00 0. -1.
        -12    1    5    5    0    0  0.14795466804E+02  0.25483204639E+02 -0.29704126985E+03  0.29849927228E+03  0.00000000000E+00 0. -1.
<mgrwt>
<rscale>  0 0.12498930E+03</rscale>
<asrwt>0</asrwt>
<pdfrwt beam="1">  1       21 0.71861870E-03 0.12498930E+03</pdfrwt>
<pdfrwt beam="2">  1       21 0.12863539E+00 0.12498930E+03</pdfrwt>
<totfact> 0.28062265E+06</totfact>
</mgrwt>
</event>
<event>
 9    1  0.4458519E-002  0.1250024E+03  0.7818608E-02  0.1235065E+00
         21   -1    0    0  503  502  0.00000000000E+00  0.00000000000E+00  0.20229140255E+03  0.20229140255E+03  0.00000000000E+00 0. -1.
         21   -1    0    0  502  503 -0.00000000000E+00 -0.00000000000E+00 -0.19310766567E+02  0.19310766567E+02  0.00000000000E+00 0. -1.
         25    2    1    2    0    0  0.00000000000E+00 -0.17763568394E-14  0.18298063598E+03  0.22160216912E+03  0.12500243283E+03 0.  0.
    9000006    2    3    3    0    0 -0.89905616845E+01 -0.15621785623E+01  0.11796504199E+03  0.13266157475E+03  0.60000597348E+02 0.  0.
    9000007    2    3    3    0    0  0.89905616845E+01  0.15621785623E+01  0.65015593987E+02  0.88940594362E+02  0.60001093846E+02 0.  0.
          5    1    4    4  501    0  0.67776469630E+01 -0.14951702754E+02  0.51011120749E+01  0.17821370823E+02  0.47000000000E+01 0. -1.
         -5    1    4    4    0  501 -0.15768208648E+02  0.13389524192E+02  0.11286392992E+03  0.11484020393E+03  0.47000000000E+01 0. -1.
         12    1    5    5    0    0  0.36316302757E+01  0.24869968057E+02  0.68504650986E+01  0.26050583903E+02  0.00000000000E+00 0. -1.
        -12    1    5    5    0    0  0.53589314089E+01 -0.23307789495E+02  0.58165128888E+02  0.62890010459E+02  0.00000000000E+00 0. -1.
<mgrwt>
<rscale>  0 0.12500243E+03</rscale>
<asrwt>0</asrwt>
<pdfrwt beam="1">  1       21 0.31121753E-01 0.12500243E+03</pdfrwt>
<pdfrwt beam="2">  1       21 0.29708873E-02 0.12500243E+03</pdfrwt>
<totfact> 0.62655295E+06</totfact>
</mgrwt>
</event>
<event>
 9    1  0.4458519E-002  0.1250026E+03  0.7818608E-02  0.1235065E+00
         21   -1    0    0  503  502  0.00000000000E+00  0.00000000000E+00  0.19342949940E+03  0.19342949940E+03  0.00000000000E+00 0. -1.
         21   -1    0    0  502  503 -0.00000000000E+00 -0.00000000000E+00 -0.20195530605E+02  0.20195530605E+02  0.00000000000E+00 0. -1.
         25    2    1    2    0    0 -0.35527136788E-14  0.17763568394E-14  0.17323396880E+03  0.21362503001E+03  0.12500258198E+03 0.  0.
    9000006    2    3    3    0    0  0.82379219626E+01 -0.14211284206E+02  0.76331493097E+02  0.98470201627E+02  0.60000498440E+02 0.  0.
    9000007    2    3    3    0    0 -0.82379219626E+01  0.14211284206E+02  0.96902475703E+02  0.11515482838E+03  0.60006005912E+02 0.  0.
          5    1    4    4  501    0  0.18611777559E+02 -0.15696844806E+02  0.38613785704E+01  0.25095606094E+02  0.47000000000E+01 0. -1.
         -5    1    4    4    0  501 -0.10373855596E+02  0.14855605992E+01  0.72470114526E+02  0.73374595533E+02  0.47000000000E+01 0. -1.
         12    1    5    5    0    0  0.23173019091E+01  0.36862525534E+02  0.52274812680E+02  0.64006809931E+02  0.00000000000E+00 0.  1.
        -12    1    5    5    0    0 -0.10555223872E+02 -0.22651241327E+02  0.44627663023E+02  0.51148018452E+02  0.00000000000E+00 0.  1.
<mgrwt>
<rscale>  0 0.12500258E+03</rscale>
<asrwt>0</asrwt>
<pdfrwt beam="1">  1       21 0.29758383E-01 0.12500258E+03</pdfrwt>
<pdfrwt beam="2">  1       21 0.31070049E-02 0.12500258E+03</pdfrwt>
<totfact> 0.63476004E+06</totfact>
</mgrwt>
</event>
<event>
 9    1  0.4458519E-002  0.1250122E+03  0.7818608E-02  0.1235050E+00
         21   -1    0    0  503  502  0.00000000000E+00  0.00000000000E+00  0.70587872705E+02  0.70587872705E+02  0.00000000000E+00 0. -1.
         21   -1    0    0  502  503 -0.00000000000E+00 -0.00000000000E+00 -0.55349631298E+02  0.55349631298E+02  0.00000000000E+00 0. -1.
         25    2    1    2    0    0 -0.17763568394E-14  0.00000000000E+00  0.15238241407E+02  0.12593750400E+03  0.12501220306E+03 0.  0.
    9000006    2    3    3    0    0 -0.97860704669E+01  0.13909320429E+02  0.11863784790E+02  0.63482160608E+02  0.59999991300E+02 0.  0.
    9000007    2    3    3    0    0  0.97860704669E+01 -0.13909320429E+02  0.33744566179E+01  0.62455343395E+02  0.60000388258E+02 0.  0.
          5    1    4    4  501    0 -0.28979371488E+02 -0.20917806963E+01 -0.87978133559E+01  0.30719229127E+02  0.47000000000E+01 0. -1.
         -5    1    4    4    0  501  0.19193301021E+02  0.16001101125E+02  0.20661598145E+02  0.32762931481E+02  0.47000000000E+01 0. -1.
         12    1    5    5    0    0  0.14338382705E+02 -0.12934527592E+02 -0.26182893582E+02  0.32533600153E+02  0.00000000000E+00 0. -1.
        -12    1    5    5    0    0 -0.45523122383E+01 -0.97479283690E+00  0.29557350199E+02  0.29921743241E+02  0.00000000000E+00 0. -1.
<mgrwt>
<rscale>  0 0.12501220E+03</rscale>
<asrwt>0</asrwt>
<pdfrwt beam="1">  1       21 0.10859673E-01 0.12501220E+03</pdfrwt>
<pdfrwt beam="2">  1       21 0.85153279E-02 0.12501220E+03</pdfrwt>
<totfact> 0.73891656E+06</totfact>
</mgrwt>
</event>
<event>
 9    1  0.4458519E-002  0.1249994E+03  0.7818608E-02  0.1235070E+00
         21   -1    0    0  503  502  0.00000000000E+00  0.00000000000E+00  0.18252420188E+03  0.18252420188E+03  0.00000000000E+00 0.  1.
         21   -1    0    0  502  503 -0.00000000000E+00 -0.00000000000E+00 -0.21401054486E+02  0.21401054486E+02  0.00000000000E+00 0.  1.
         25    2    1    2    0    0  0.17763568394E-14  0.17763568394E-14  0.16112314740E+03  0.20392525637E+03  0.12499936623E+03 0.  0.
    9000006    2    3    3    0    0 -0.64350305843E+01 -0.10642918917E+02  0.10064839875E+03  0.11783312615E+03  0.59998867538E+02 0.  0.
    9000007    2    3    3    0    0  0.64350305843E+01  0.10642918917E+02  0.60474748643E+02  0.86092130214E+02  0.59999819331E+02 0.  0.
          5    1    4    4  501    0 -0.59361705205E+01  0.17214503754E+02  0.81641977803E+02  0.83779948673E+02  0.47000000000E+01 0.  1.
         -5    1    4    4    0  501 -0.49886006383E+00 -0.27857422671E+02  0.19006420950E+02  0.34053177481E+02  0.47000000000E+01 0.  1.
         12    1    5    5    0    0  0.29277969662E+02  0.18085887538E+02  0.22368214651E+02  0.41044315833E+02  0.00000000000E+00 0.  1.
        -12    1    5    5    0    0 -0.22842939077E+02 -0.74429686212E+01  0.38106533993E+02  0.45047814381E+02  0.00000000000E+00 0.  1.
<mgrwt>
<rscale>  0 0.12499937E+03</rscale>
<asrwt>0</asrwt>
<pdfrwt beam="1">  1       21 0.28080645E-01 0.12499937E+03</pdfrwt>
<pdfrwt beam="2">  1       21 0.32924701E-02 0.12499937E+03</pdfrwt>
<totfact> 0.64505425E+06</totfact>
</mgrwt>
</event>
<event>
 9    1  0.4458519E-002  0.1249981E+03  0.7818608E-02  0.1235072E+00
         21   -1    0    0  503  502  0.00000000000E+00  0.00000000000E+00  0.60697936171E+02  0.60697936171E+02  0.00000000000E+00 0. -1.
         21   -1    0    0  502  503 -0.00000000000E+00 -0.00000000000E+00 -0.64353595809E+02  0.64353595809E+02  0.00000000000E+00 0. -1.
         25    2    1    2    0    0  0.00000000000E+00  0.00000000000E+00 -0.36556596381E+01  0.12505153198E+03  0.12499808720E+03 0.  0.
    9000006    2    3    3    0    0 -0.60766152223E+01  0.14968767086E+02  0.48959301336E+01  0.62328923882E+02  0.59999461496E+02 0.  0.
    9000007    2    3    3    0    0  0.60766152223E+01 -0.14968767086E+02 -0.85515897717E+01  0.62722608099E+02  0.60000055320E+02 0.  0.
          5    1    4    4  501    0  0.12370162502E+02  0.33999776587E+01  0.27429193991E+02  0.30643620076E+02  0.47000000000E+01 0. -1.
         -5    1    4    4    0  501 -0.18446777724E+02  0.11568789427E+02 -0.22533263857E+02  0.31685303806E+02  0.47000000000E+01 0. -1.
         12    1    5    5    0    0  0.29250071393E+02 -0.21918437188E+02  0.13635269419E+01  0.36576546734E+02  0.00000000000E+00 0. -1.
        -12    1    5    5    0    0 -0.23173456171E+02  0.69496701025E+01 -0.99151167136E+01  0.26146061364E+02  0.00000000000E+00 0. -1.
<mgrwt>
<rscale>  0 0.12499809E+03</rscale>
<asrwt>0</asrwt>
<pdfrwt beam="1">  1       21 0.93381440E-02 0.12499809E+03</pdfrwt>
<pdfrwt beam="2">  1       21 0.99005532E-02 0.12499809E+03</pdfrwt>
<totfact> 0.74040242E+06</totfact>
</mgrwt>
</event>
<event>
 9    1  0.4458519E-002  0.1250021E+03  0.7818608E-02  0.1235066E+00
         21   -1    0    0  503  502  0.00000000000E+00  0.00000000000E+00  0.13248954976E+03  0.13248954976E+03  0.00000000000E+00 0.  1.
         21   -1    0    0  502  503 -0.00000000000E+00 -0.00000000000E+00 -0.29484469774E+02  0.29484469774E+02  0.00000000000E+00 0.  1.
         25    2    1    2    0    0  0.00000000000E+00 -0.88817841970E-15  0.10300507999E+03  0.16197401954E+03  0.12500214599E+03 0.  0.
    9000006    2    3    3    0    0 -0.11846618618E+02 -0.30275289614E+01  0.35279567230E+02  0.70670661028E+02  0.60001551330E+02 0.  0.
    9000007    2    3    3    0    0  0.11846618618E+02  0.30275289614E+01  0.67725512760E+02  0.91303358509E+02  0.60000415767E+02 0.  0.
          5    1    4    4  501    0  0.97769142188E+01  0.76557710524E+01 -0.11671597690E+02  0.17678095901E+02  0.47000000000E+01 0. -1.
         -5    1    4    4    0  501 -0.21623532836E+02 -0.10683300014E+02  0.46951164919E+02  0.52992565127E+02  0.47000000000E+01 0. -1.
         12    1    5    5    0    0  0.40370764738E+01 -0.21896735137E+02  0.42549774319E+01  0.22668697119E+02  0.00000000000E+00 0. -1.
        -12    1    5    5    0    0  0.78095421438E+01  0.24924264099E+02  0.63470535328E+02  0.68634661390E+02  0.00000000000E+00 0. -1.
<mgrwt>
<rscale>  0 0.12500215E+03</rscale>
<asrwt>0</asrwt>
<pdfrwt beam="1">  1       21 0.20383007E-01 0.12500215E+03</pdfrwt>
<pdfrwt beam="2">  1       21 0.45360723E-02 0.12500215E+03</pdfrwt>
<totfact> 0.69275314E+06</totfact>
</mgrwt>
</event>
<event>
 9    1  0.4458519E-002  0.1249919E+03  0.7818608E-02  0.1235082E+00
         21   -1    0    0  503  502  0.00000000000E+00  0.00000000000E+00  0.22968149098E+03  0.22968149098E+03  0.00000000000E+00 0. -1.
         21   -1    0    0  502  503 -0.00000000000E+00 -0.00000000000E+00 -0.17005032703E+02  0.17005032703E+02  0.00000000000E+00 0. -1.
         25    2    1    2    0    0  0.19984014443E-14 -0.17763568394E-14  0.21267645828E+03  0.24668652369E+03  0.12499185998E+03 0.  0.
    9000006    2    3    3    0    0 -0.26279730836E+00  0.83470982999E+01  0.13662317560E+03  0.14945119573E+03  0.60000205670E+02 0.  0.
    9000007    2    3    3    0    0  0.26279730836E+00 -0.83470982999E+01  0.76053282679E+02  0.97235327960E+02  0.60007200274E+02 0.  0.
          5    1    4    4  501    0 -0.17902520998E+02  0.22989065230E+02  0.11052414954E+03  0.11439700612E+03  0.47000000000E+01 0. -1.
         -5    1    4    4    0  501  0.17639723690E+02 -0.14641966931E+02  0.26099026060E+02  0.35054189603E+02  0.47000000000E+01 0. -1.
         12    1    5    5    0    0 -0.14106480248E+01  0.18687974240E+02  0.25672530354E+01  0.18916159685E+02  0.00000000000E+00 0.  1.
        -12    1    5    5    0    0  0.16734453332E+01 -0.27035072540E+02  0.73486029643E+02  0.78319168275E+02  0.00000000000E+00 0.  1.
<mgrwt>
<rscale>  0 0.12499186E+03</rscale>
<asrwt>0</asrwt>
<pdfrwt beam="1">  1       21 0.35335612E-01 0.12499186E+03</pdfrwt>
<pdfrwt beam="2">  1       21 0.26161590E-02 0.12499186E+03</pdfrwt>
<totfact> 0.60203914E+06</totfact>
</mgrwt>
</event>
<event>
 9    1  0.4458519E-002  0.1250004E+03  0.7818608E-02  0.1235069E+00
         21   -1    0    0  503  502  0.00000000000E+00  0.00000000000E+00  0.68832647043E+02  0.68832647043E+02  0.00000000000E+00 0. -1.
         21   -1    0    0  502  503 -0.00000000000E+00 -0.00000000000E+00 -0.56750320815E+02  0.56750320815E+02  0.00000000000E+00 0. -1.
         25    2    1    2    0    0  0.00000000000E+00  0.00000000000E+00  0.12082326227E+02  0.12558296786E+03  0.12500039684E+03 0.  0.
    9000006    2    3    3    0    0 -0.79399986318E+01  0.14775608847E+02  0.10289462885E+01  0.62309527400E+02  0.60000468992E+02 0.  0.
    9000007    2    3    3    0    0  0.79399986318E+01 -0.14775608847E+02  0.11053379939E+02  0.63273440458E+02  0.59999907202E+02 0.  0.
          5    1    4    4  501    0 -0.31025030661E+02  0.13793472681E+02 -0.10788815123E+02  0.35934676120E+02  0.47000000000E+01 0.  1.
         -5    1    4    4    0  501  0.23085032029E+02  0.98213616621E+00  0.11817761411E+02  0.26374851280E+02  0.47000000000E+01 0.  1.
         12    1    5    5    0    0 -0.13089631646E+02 -0.10733334711E+02 -0.19589085528E+02  0.25889673665E+02  0.00000000000E+00 0. -1.
        -12    1    5    5    0    0  0.21029630278E+02 -0.40422741362E+01  0.30642465467E+02  0.37383766794E+02  0.00000000000E+00 0. -1.
<mgrwt>
<rscale>  0 0.12500040E+03</rscale>
<asrwt>0</asrwt>
<pdfrwt beam="1">  1       21 0.10589638E-01 0.12500040E+03</pdfrwt>
<pdfrwt beam="2">  1       21 0.87308186E-02 0.12500040E+03</pdfrwt>
<totfact> 0.73963067E+06</totfact>
</mgrwt>
</event>
<event>
 9    1  0.4458519E-002  0.1250016E+03  0.7818608E-02  0.1235067E+00
         21   -1    0    0  503  502  0.00000000000E+00  0.00000000000E+00  0.91342983811E+01  0.91342983811E+01  0.00000000000E+00 0.  1.
         21   -1    0    0  502  503 -0.00000000000E+00 -0.00000000000E+00 -0.42765763817E+03  0.42765763817E+03  0.00000000000E+00 0.  1.
         25    2    1    2    0    0 -0.35527136788E-14  0.17763568394E-14 -0.41852333979E+03  0.43679193655E+03  0.12500163954E+03 0.  0.
    9000006    2    3    3    0    0  0.52353671233E+01 -0.12625458458E+02 -0.24751978530E+03  0.25505330234E+03  0.59994430140E+02 0.  0.
    9000007    2    3    3    0    0 -0.52353671233E+01  0.12625458458E+02 -0.17100355449E+03  0.18173863421E+03  0.59999202061E+02 0.  0.
          5    1    4    4  501    0  0.31841846474E+02 -0.11936815936E+02 -0.14795968236E+03  0.15188992187E+03  0.47000000000E+01 0. -1.
         -5    1    4    4    0  501 -0.26606479351E+02 -0.68864252291E+00 -0.99560102945E+02  0.10316338047E+03  0.47000000000E+01 0. -1.
         12    1    5    5    0    0 -0.27485096340E+02  0.61386892571E+01 -0.14121742023E+03  0.14399817292E+03  0.00000000000E+00 0.  1.
        -12    1    5    5    0    0  0.22249729217E+02  0.64867692013E+01 -0.29786134258E+02  0.37740461297E+02  0.00000000000E+00 0.  1.
<mgrwt>
<rscale>  0 0.12500164E+03</rscale>
<asrwt>0</asrwt>
<pdfrwt beam="1">  1       21 0.14052763E-02 0.12500164E+03</pdfrwt>
<pdfrwt beam="2">  1       21 0.65793501E-01 0.12500164E+03</pdfrwt>
<totfact> 0.45691150E+06</totfact>
</mgrwt>
</event>
<event>
 9    1  0.4458519E-002  0.1250007E+03  0.7818608E-02  0.1235068E+00
         21   -1    0    0  503  502  0.00000000000E+00  0.00000000000E+00  0.57592315194E+02  0.57592315194E+02  0.00000000000E+00 0. -1.
         21   -1    0    0  502  503 -0.00000000000E+00 -0.00000000000E+00 -0.67826602205E+02  0.67826602205E+02  0.00000000000E+00 0. -1.
         25    2    1    2    0    0 -0.17763568394E-14  0.35527136788E-14 -0.10234287011E+02  0.12541891740E+03  0.12500065684E+03 0.  0.
    9000006    2    3    3    0    0  0.47687662099E+00 -0.13674674163E+02  0.58209614165E+01  0.61815726973E+02  0.60000636535E+02 0.  0.
    9000007    2    3    3    0    0 -0.47687662099E+00  0.13674674163E+02 -0.16055248428E+02  0.63603190425E+02  0.60003089132E+02 0.  0.
          5    1    4    4  501    0  0.20437519418E+02 -0.27605212528E+02  0.11231679238E+02  0.36441467824E+02  0.47000000000E+01 0.  1.
         -5    1    4    4    0  501 -0.19960642797E+02  0.13930538365E+02 -0.54107178210E+01  0.25374259149E+02  0.47000000000E+01 0.  1.
         12    1    5    5    0    0  0.12458499520E+02  0.34420970575E+02 -0.56802894363E+01  0.37044339833E+02  0.00000000000E+00 0. -1.
        -12    1    5    5    0    0 -0.12935376141E+02 -0.20746296411E+02 -0.10374958992E+02  0.26558850592E+02  0.00000000000E+00 0. -1.
<mgrwt>
<rscale>  0 0.12500066E+03</rscale>
<asrwt>0</asrwt>
<pdfrwt beam="1">  1       21 0.88603563E-02 0.12500066E+03</pdfrwt>
<pdfrwt beam="2">  1       21 0.10434862E-01 0.12500066E+03</pdfrwt>
<totfact> 0.73985516E+06</totfact>
</mgrwt>
</event>
<event>
 9    1  0.4458519E-002  0.1249982E+03  0.7818608E-02  0.1235072E+00
         21   -1    0    0  503  502  0.00000000000E+00  0.00000000000E+00  0.52213204102E+03  0.52213204102E+03  0.00000000000E+00 0. -1.
         21   -1    0    0  502  503 -0.00000000000E+00 -0.00000000000E+00 -0.74811239525E+01  0.74811239525E+01  0.00000000000E+00 0. -1.
         25    2    1    2    0    0  0.00000000000E+00  0.00000000000E+00  0.51465091707E+03  0.52961316497E+03  0.12499815228E+03 0.  0.
    9000006    2    3    3    0    0  0.17096544615E+02  0.37081382236E+01  0.25836746208E+03  0.26581917211E+03  0.60000372269E+02 0.  0.
    9000007    2    3    3    0    0 -0.17096544615E+02 -0.37081382236E+01  0.25628345499E+03  0.26379399286E+03  0.60000160362E+02 0.  0.
          5    1    4    4  501    0 -0.19321348056E+02  0.12256392821E+02  0.72625799533E+02  0.76289779220E+02  0.47000000000E+01 0.  1.
         -5    1    4    4    0  501  0.36417892671E+02 -0.85482545972E+01  0.18574166255E+03  0.18952939289E+03  0.47000000000E+01 0.  1.
         12    1    5    5    0    0 -0.97745930426E+01  0.52396578802E+01  0.48661559255E+01  0.12110993243E+02  0.00000000000E+00 0. -1.
        -12    1    5    5    0    0 -0.73219515723E+01 -0.89477961038E+01  0.25141729906E+03  0.25168299962E+03  0.00000000000E+00 0. -1.
<mgrwt>
<rscale>  0 0.12499815E+03</rscale>
<asrwt>0</asrwt>
<pdfrwt beam="1">  1       21 0.80327978E-01 0.12499815E+03</pdfrwt>
<pdfrwt beam="2">  1       21 0.11509426E-02 0.12499815E+03</pdfrwt>
<totfact> 0.40484181E+06</totfact>
</mgrwt>
</event>
<event>
 9    1  0.4458519E-002  0.1250003E+03  0.7818608E-02  0.1235069E+00
         21   -1    0    0  503  502  0.00000000000E+00  0.00000000000E+00  0.34276685139E+02  0.34276685139E+02  0.00000000000E+00 0.  1.
         21   -1    0    0  502  503 -0.00000000000E+00 -0.00000000000E+00 -0.11396293054E+03  0.11396293054E+03  0.00000000000E+00 0.  1.
         25    2    1    2    0    0  0.00000000000E+00  0.00000000000E+00 -0.79686245404E+02  0.14823961568E+03  0.12500034380E+03 0.  0.
    9000006    2    3    3    0    0 -0.63361549417E+01 -0.12473357092E+02 -0.27374484355E+02  0.67417202028E+02  0.59999876991E+02 0.  0.
    9000007    2    3    3    0    0  0.63361549417E+01  0.12473357092E+02 -0.52311761049E+02  0.80822413654E+02  0.60000089235E+02 0.  0.
          5    1    4    4  501    0  0.18158677320E+02 -0.26570369005E+02 -0.10548697130E+02  0.34191915451E+02  0.47000000000E+01 0. -1.
         -5    1    4    4    0  501 -0.24494832261E+02  0.14097011913E+02 -0.16825787225E+02  0.33225286577E+02  0.47000000000E+01 0. -1.
         12    1    5    5    0    0  0.21369112941E+02 -0.16013154013E+02 -0.35697969167E+02  0.44580321802E+02  0.00000000000E+00 0. -1.
        -12    1    5    5    0    0 -0.15032957999E+02  0.28486511104E+02 -0.16613791882E+02  0.36242091852E+02  0.00000000000E+00 0. -1.
<mgrwt>
<rscale>  0 0.12500034E+03</rscale>
<asrwt>0</asrwt>
<pdfrwt beam="1">  1       21 0.52733362E-02 0.12500034E+03</pdfrwt>
<pdfrwt beam="2">  1       21 0.17532759E-01 0.12500034E+03</pdfrwt>
<totfact> 0.70980422E+06</totfact>
</mgrwt>
</event>
<event>
 9    1  0.4458519E-002  0.1250047E+03  0.7818608E-02  0.1235062E+00
         21   -1    0    0  503  502  0.00000000000E+00  0.00000000000E+00  0.65722873053E+01  0.65722873053E+01  0.00000000000E+00 0. -1.
         21   -1    0    0  502  503 -0.00000000000E+00 -0.00000000000E+00 -0.59439655487E+03  0.59439655487E+03  0.00000000000E+00 0. -1.
         25    2    1    2    0    0 -0.88817841970E-15 -0.88817841970E-15 -0.58782426757E+03  0.60096884218E+03  0.12500471882E+03 0.  0.
    9000006    2    3    3    0    0 -0.51367583040E+01  0.41845216800E+01 -0.37182364658E+03  0.37669181937E+03  0.60000050967E+02 0.  0.
    9000007    2    3    3    0    0  0.51367583040E+01 -0.41845216800E+01 -0.21600062098E+03  0.22427702281E+03  0.60000151545E+02 0.  0.
          5    1    4    4  501    0  0.22075824564E+02 -0.76816713779E+01 -0.84463549089E+02  0.87764065711E+02  0.47000000000E+01 0.  1.
         -5    1    4    4    0  501 -0.27212582869E+02  0.11866193058E+02 -0.28736009749E+03  0.28892775366E+03  0.47000000000E+01 0.  1.
         12    1    5    5    0    0  0.14085002335E+01  0.27914973973E+02 -0.93798513236E+02  0.97874361965E+02  0.00000000000E+00 0. -1.
        -12    1    5    5    0    0  0.37282580706E+01 -0.32099495653E+02 -0.12220210775E+03  0.12640266084E+03  0.00000000000E+00 0. -1.
<mgrwt>
<rscale>  0 0.12500472E+03</rscale>
<asrwt>0</asrwt>
<pdfrwt beam="1">  1       21 0.10111211E-02 0.12500472E+03</pdfrwt>
<pdfrwt beam="2">  1       21 0.91445627E-01 0.12500472E+03</pdfrwt>
<totfact> 0.37044510E+06</totfact>
</mgrwt>
</event>
<event>
 9    1  0.4458519E-002  0.1250090E+03  0.7818608E-02  0.1235055E+00
         21   -1    0    0  503  502  0.00000000000E+00  0.00000000000E+00  0.22650666741E+02  0.22650666741E+02  0.00000000000E+00 0.  1.
         21   -1    0    0  502  503 -0.00000000000E+00 -0.00000000000E+00 -0.17248117606E+03  0.17248117606E+03  0.00000000000E+00 0.  1.
         25    2    1    2    0    0  0.35527136788E-14  0.00000000000E+00 -0.14983050932E+03  0.19513184280E+03  0.12500901788E+03 0.  0.
    9000006    2    3    3    0    0  0.12259655939E+02 -0.29273133184E+01 -0.93900485828E+02  0.11214374551E+03  0.60000417430E+02 0.  0.
    9000007    2    3    3    0    0 -0.12259655939E+02  0.29273133184E+01 -0.55930023489E+02  0.82988097287E+02  0.59999903640E+02 0.  0.
          5    1    4    4  501    0 -0.18216018423E+02 -0.65149755727E+01 -0.70530571112E+02  0.73286558763E+02  0.47000000000E+01 0. -1.
         -5    1    4    4    0  501  0.30475674362E+02  0.35876622543E+01 -0.23369914716E+02  0.38857186750E+02  0.47000000000E+01 0. -1.
         12    1    5    5    0    0 -0.34383599235E+02 -0.20113895718E+01 -0.47778048149E+02  0.58898382570E+02  0.00000000000E+00 0.  1.
        -12    1    5    5    0    0  0.22123943296E+02  0.49387028901E+01 -0.81519753394E+01  0.24089714717E+02  0.00000000000E+00 0.  1.
<mgrwt>
<rscale>  0 0.12500902E+03</rscale>
<asrwt>0</asrwt>
<pdfrwt beam="1">  1       21 0.34847180E-02 0.12500902E+03</pdfrwt>
<pdfrwt beam="2">  1       21 0.26535565E-01 0.12500902E+03</pdfrwt>
<totfact> 0.65441646E+06</totfact>
</mgrwt>
</event>
<event>
 9    1  0.4458519E-002  0.1249966E+03  0.7818608E-02  0.1235075E+00
         21   -1    0    0  503  502  0.00000000000E+00  0.00000000000E+00  0.32325282486E+02  0.32325282486E+02  0.00000000000E+00 0.  1.
         21   -1    0    0  502  503 -0.00000000000E+00 -0.00000000000E+00 -0.12083531526E+03  0.12083531526E+03  0.00000000000E+00 0.  1.
         25    2    1    2    0    0  0.00000000000E+00 -0.17763568394E-14 -0.88510032770E+02  0.15316059774E+03  0.12499657115E+03 0.  0.
    9000006    2    3    3    0    0 -0.88425154334E+01 -0.23933046040E+00 -0.25764559687E+02  0.65894832622E+02  0.60000575599E+02 0.  0.
    9000007    2    3    3    0    0  0.88425154334E+01  0.23933046040E+00 -0.62745473083E+02  0.87265765120E+02  0.60000600091E+02 0.  0.
          5    1    4    4  501    0  0.11230073591E+02  0.25129965956E+02 -0.13005459601E+02  0.30803599161E+02  0.47000000000E+01 0. -1.
         -5    1    4    4    0  501 -0.20072589025E+02 -0.25369296417E+02 -0.12759100086E+02  0.35091233461E+02  0.47000000000E+01 0. -1.
         12    1    5    5    0    0  0.19583922649E+02  0.45049692966E+01 -0.70526223196E+02  0.73333300300E+02  0.00000000000E+00 0. -1.
        -12    1    5    5    0    0 -0.10741407215E+02 -0.42656388362E+01  0.77807501124E+01  0.13932464820E+02  0.00000000000E+00 0. -1.
<mgrwt>
<rscale>  0 0.12499657E+03</rscale>
<asrwt>0</asrwt>
<pdfrwt beam="1">  1       21 0.49731203E-02 0.12499657E+03</pdfrwt>
<pdfrwt beam="2">  1       21 0.18590049E-01 0.12499657E+03</pdfrwt>
<totfact> 0.70370533E+06</totfact>
</mgrwt>
</event>
<event>
 9    1  0.4458519E-002  0.1250031E+03  0.7818608E-02  0.1235064E+00
         21   -1    0    0  503  502  0.00000000000E+00  0.00000000000E+00  0.47137370232E+02  0.47137370232E+02  0.00000000000E+00 0. -1.
         21   -1    0    0  502  503 -0.00000000000E+00 -0.00000000000E+00 -0.82873620699E+02  0.82873620699E+02  0.00000000000E+00 0. -1.
         25    2    1    2    0    0  0.35527136788E-14  0.00000000000E+00 -0.35736250467E+02  0.13001099093E+03  0.12500311262E+03 0.  0.
    9000006    2    3    3    0    0 -0.10035357181E+01  0.10170937971E+02 -0.32644903037E+02  0.69066179500E+02  0.59999936610E+02 0.  0.
    9000007    2    3    3    0    0  0.10035357181E+01 -0.10170937971E+02 -0.30913474303E+01  0.60944811431E+02  0.60002154530E+02 0.  0.
          5    1    4    4  501    0 -0.17675951305E+02 -0.18918317203E+02 -0.19482261908E+02  0.32741266154E+02  0.47000000000E+01 0. -1.
         -5    1    4    4    0  501  0.16672415586E+02  0.29089255174E+02 -0.13162641129E+02  0.36324913346E+02  0.47000000000E+01 0. -1.
         12    1    5    5    0    0 -0.16822073334E+02  0.10932412259E+02 -0.20185114476E+02  0.28459420856E+02  0.00000000000E+00 0.  1.
        -12    1    5    5    0    0  0.17825609052E+02 -0.21103350231E+02  0.17093767046E+02  0.32485390575E+02  0.00000000000E+00 0.  1.
<mgrwt>
<rscale>  0 0.12500311E+03</rscale>
<asrwt>0</asrwt>
<pdfrwt beam="1">  1       21 0.72519032E-02 0.12500311E+03</pdfrwt>
<pdfrwt beam="2">  1       21 0.12749788E-01 0.12500311E+03</pdfrwt>
<totfact> 0.73357616E+06</totfact>
</mgrwt>
</event>
<event>
 9    1  0.4458519E-002  0.1250004E+03  0.7818608E-02  0.1235069E+00
         21   -1    0    0  503  502  0.00000000000E+00  0.00000000000E+00  0.28481093383E+03  0.28481093383E+03  0.00000000000E+00 0. -1.
         21   -1    0    0  502  503 -0.00000000000E+00 -0.00000000000E+00 -0.13715324994E+02  0.13715324994E+02  0.00000000000E+00 0. -1.
         25    2    1    2    0    0  0.17763568394E-14  0.00000000000E+00  0.27109560883E+03  0.29852625882E+03  0.12500039231E+03 0.  0.
    9000006    2    3    3    0    0  0.65271667209E+01 -0.15743134295E+02  0.14505183292E+03  0.15789460936E+03  0.60001860377E+02 0.  0.
    9000007    2    3    3    0    0 -0.65271667209E+01  0.15743134295E+02  0.12604377592E+03  0.14063164947E+03  0.59998143314E+02 0.  0.
          5    1    4    4  501    0  0.11695267796E+02 -0.12747819231E+02  0.64007993386E+01  0.19035399028E+02  0.47000000000E+01 0.  1.
         -5    1    4    4    0  501 -0.51681010755E+01 -0.29953150645E+01  0.13865103358E+03  0.13885921033E+03  0.47000000000E+01 0.  1.
         12    1    5    5    0    0  0.15135300001E+02  0.26708241667E+02  0.10176989746E+03  0.10629919806E+03  0.00000000000E+00 0.  1.
        -12    1    5    5    0    0 -0.21662466722E+02 -0.10965107372E+02  0.24273878456E+02  0.34332451405E+02  0.00000000000E+00 0.  1.
<mgrwt>
<rscale>  0 0.12500039E+03</rscale>
<asrwt>0</asrwt>
<pdfrwt beam="1">  1       21 0.43817062E-01 0.12500039E+03</pdfrwt>
<pdfrwt beam="2">  1       21 0.21100502E-02 0.12500039E+03</pdfrwt>
<totfact> 0.55578324E+06</totfact>
</mgrwt>
</event>
<event>
 9    1  0.4458519E-002  0.1250105E+03  0.7818608E-02  0.1235053E+00
         21   -1    0    0  503  502  0.00000000000E+00  0.00000000000E+00  0.27824628357E+02  0.27824628357E+02  0.00000000000E+00 0. -1.
         21   -1    0    0  502  503 -0.00000000000E+00 -0.00000000000E+00 -0.14041172155E+03  0.14041172155E+03  0.00000000000E+00 0. -1.
         25    2    1    2    0    0  0.00000000000E+00 -0.35527136788E-14 -0.11258709319E+03  0.16823634990E+03  0.12501046307E+03 0.  0.
    9000006    2    3    3    0    0  0.12257180682E+02 -0.64967902649E+01 -0.70700616766E+02  0.93760575944E+02  0.60000180234E+02 0.  0.
    9000007    2    3    3    0    0 -0.12257180682E+02  0.64967902649E+01 -0.41886476422E+02  0.74475773959E+02  0.59997643601E+02 0.  0.
          5    1    4    4  501    0 -0.13955886887E+02 -0.21796461478E+02 -0.50675252529E+02  0.57095741791E+02  0.47000000000E+01 0. -1.
         -5    1    4    4    0  501  0.26213067569E+02  0.15299671213E+02 -0.20025364236E+02  0.36664834152E+02  0.47000000000E+01 0. -1.
         12    1    5    5    0    0 -0.32466716100E+02  0.99642844099E+00 -0.61577226457E+01  0.33060521353E+02  0.00000000000E+00 0. -1.
        -12    1    5    5    0    0  0.20209535417E+02  0.55003618239E+01 -0.35728753777E+02  0.41415252606E+02  0.00000000000E+00 0. -1.
<mgrwt>
<rscale>  0 0.12501046E+03</rscale>
<asrwt>0</asrwt>
<pdfrwt beam="1">  1       21 0.42807121E-02 0.12501046E+03</pdfrwt>
<pdfrwt beam="2">  1       21 0.21601803E-01 0.12501046E+03</pdfrwt>
<totfact> 0.68508634E+06</totfact>
</mgrwt>
</event>
<event>
 9    1  0.4458519E-002  0.1250003E+03  0.7818608E-02  0.1235069E+00
         21   -1    0    0  503  502  0.00000000000E+00  0.00000000000E+00  0.17190475852E+03  0.17190475852E+03  0.00000000000E+00 0. -1.
         21   -1    0    0  502  503 -0.00000000000E+00 -0.00000000000E+00 -0.22723452943E+02  0.22723452943E+02  0.00000000000E+00 0. -1.
         25    2    1    2    0    0 -0.88817841970E-15  0.17763568394E-14  0.14918130558E+03  0.19462821147E+03  0.12500031505E+03 0.  0.
    9000006    2    3    3    0    0 -0.29849756269E+01  0.15610828660E+02  0.63183661963E+02  0.88570545231E+02  0.59999652436E+02 0.  0.
    9000007    2    3    3    0    0  0.29849756269E+01 -0.15610828660E+02  0.85997643616E+02  0.10605766623E+03  0.60000215071E+02 0.  0.
          5    1    4    4  501    0  0.24689041197E+02  0.71446455843E+01  0.10264456767E+02  0.28072117634E+02  0.47000000000E+01 0. -1.
         -5    1    4    4    0  501 -0.27674016824E+02  0.84661830752E+01  0.52919205196E+02  0.60498427596E+02  0.47000000000E+01 0. -1.
         12    1    5    5    0    0  0.87359343449E+01  0.11586993631E+02  0.74623931821E+02  0.76021748011E+02  0.00000000000E+00 0.  1.
        -12    1    5    5    0    0 -0.57509587180E+01 -0.27197822290E+02  0.11373711795E+02  0.30035918223E+02  0.00000000000E+00 0.  1.
<mgrwt>
<rscale>  0 0.12500032E+03</rscale>
<asrwt>0</asrwt>
<pdfrwt beam="1">  1       21 0.26446885E-01 0.12500032E+03</pdfrwt>
<pdfrwt beam="2">  1       21 0.34959159E-02 0.12500032E+03</pdfrwt>
<totfact> 0.65511214E+06</totfact>
</mgrwt>
</event>
<event>
 9    1  0.4458519E-002  0.1249989E+03  0.7818608E-02  0.1235071E+00
         21   -1    0    0  503  502  0.00000000000E+00  0.00000000000E+00  0.16093824733E+04  0.16093824733E+04  0.00000000000E+00 0.  1.
         21   -1    0    0  502  503 -0.00000000000E+00 -0.00000000000E+00 -0.24271323817E+01  0.24271323817E+01  0.00000000000E+00 0.  1.
         25    2    1    2    0    0  0.00000000000E+00  0.00000000000E+00  0.16069553409E+04  0.16118096056E+04  0.12499894904E+03 0.  0.
    9000006    2    3    3    0    0  0.82174204688E+01  0.14930499326E+02  0.85452367873E+03  0.85679713413E+03  0.60001381191E+02 0.  0.
    9000007    2    3    3    0    0 -0.82174204688E+01 -0.14930499326E+02  0.75243166215E+03  0.75501247150E+03  0.59999834300E+02 0.  0.
          5    1    4    4  501    0  0.31217662482E+02  0.15868553748E+01  0.60305053651E+03  0.60387838192E+03  0.47000000000E+01 0. -1.
         -5    1    4    4    0  501 -0.23000242013E+02  0.13343643951E+02  0.25147314221E+03  0.25291875221E+03  0.47000000000E+01 0. -1.
         12    1    5    5    0    0 -0.28796896419E+02 -0.86642051225E+01  0.20870338725E+03  0.21085880001E+03  0.00000000000E+00 0.  1.
        -12    1    5    5    0    0  0.20579475950E+02 -0.62662942034E+01  0.54372827490E+03  0.54415367149E+03  0.00000000000E+00 0.  1.
<mgrwt>
<rscale>  0 0.12499895E+03</rscale>
<asrwt>0</asrwt>
<pdfrwt beam="1">  1       21 0.24759645E+00 0.12499895E+03</pdfrwt>
<pdfrwt beam="2">  1       21 0.37340627E-03 0.12499895E+03</pdfrwt>
<totfact> 0.12414496E+06</totfact>
</mgrwt>
</event>
<event>
 9    1  0.4458519E-002  0.1249991E+03  0.7818608E-02  0.1235071E+00
         21   -1    0    0  503  502  0.00000000000E+00  0.00000000000E+00  0.81840643452E+01  0.81840643452E+01  0.00000000000E+00 0.  1.
         21   -1    0    0  502  503 -0.00000000000E+00 -0.00000000000E+00 -0.47729267294E+03  0.47729267294E+03  0.00000000000E+00 0.  1.
         25    2    1    2    0    0 -0.17763568394E-14  0.00000000000E+00 -0.46910860860E+03  0.48547673729E+03  0.12499910315E+03 0.  0.
    9000006    2    3    3    0    0 -0.73780745618E+00  0.14815088911E+02 -0.19850448547E+03  0.20790388920E+03  0.59999709766E+02 0.  0.
    9000007    2    3    3    0    0  0.73780745618E+00 -0.14815088911E+02 -0.27060412313E+03  0.27757284809E+03  0.60000527704E+02 0.  0.
          5    1    4    4  501    0 -0.12682566321E+02 -0.10735831263E+01 -0.17947540649E+03  0.17998753180E+03  0.47000000000E+01 0. -1.
         -5    1    4    4    0  501  0.11944758865E+02  0.15888672038E+02 -0.19029078985E+02  0.27916357400E+02  0.47000000000E+01 0. -1.
         12    1    5    5    0    0 -0.28887774063E+02 -0.14148570465E+02 -0.13871517795E+03  0.14239587821E+03  0.00000000000E+00 0. -1.
        -12    1    5    5    0    0  0.29625581520E+02 -0.66651844637E+00 -0.13188894518E+03  0.13517696988E+03  0.00000000000E+00 0. -1.
<mgrwt>
<rscale>  0 0.12499910E+03</rscale>
<asrwt>0</asrwt>
<pdfrwt beam="1">  1       21 0.12590869E-02 0.12499910E+03</pdfrwt>
<pdfrwt beam="2">  1       21 0.73429640E-01 0.12499910E+03</pdfrwt>
<totfact> 0.42843770E+06</totfact>
</mgrwt>
</event>
<event>
 9    1  0.4458519E-002  0.1250020E+03  0.7818608E-02  0.1235066E+00
         21   -1    0    0  503  502  0.00000000000E+00  0.00000000000E+00  0.40940081529E+03  0.40940081529E+03  0.00000000000E+00 0. -1.
         21   -1    0    0  502  503 -0.00000000000E+00 -0.00000000000E+00 -0.95416825874E+01  0.95416825874E+01  0.00000000000E+00 0. -1.
         25    2    1    2    0    0  0.35527136788E-14  0.35527136788E-14  0.39985913270E+03  0.41894249787E+03  0.12500196207E+03 0.  0.
    9000006    2    3    3    0    0  0.45317884003E+00 -0.10721533810E+02  0.15361009932E+03  0.16526153115E+03  0.60001286715E+02 0.  0.
    9000007    2    3    3    0    0 -0.45317884003E+00  0.10721533810E+02  0.24624903338E+03  0.25368096672E+03  0.60002414769E+02 0.  0.
          5    1    4    4  501    0 -0.13435086282E+02 -0.32023069999E+02  0.91667457432E+02  0.98137614132E+02  0.47000000000E+01 0.  1.
         -5    1    4    4    0  501  0.13888265122E+02  0.21301536189E+02  0.61942641883E+02  0.67123917016E+02  0.47000000000E+01 0.  1.
         12    1    5    5    0    0 -0.20786252192E+02 -0.95067608847E+01  0.18059246537E+03  0.18203319843E+03  0.00000000000E+00 0. -1.
        -12    1    5    5    0    0  0.20333073352E+02  0.20228294695E+02  0.65656568012E+02  0.71647768293E+02  0.00000000000E+00 0. -1.
<mgrwt>
<rscale>  0 0.12500196E+03</rscale>
<asrwt>0</asrwt>
<pdfrwt beam="1">  1       21 0.62984727E-01 0.12500196E+03</pdfrwt>
<pdfrwt beam="2">  1       21 0.14679515E-02 0.12500196E+03</pdfrwt>
<totfact> 0.46807494E+06</totfact>
</mgrwt>
</event>
<event>
 9    1  0.4458519E-002  0.1250009E+03  0.7818608E-02  0.1235068E+00
         21   -1    0    0  503  502  0.00000000000E+00  0.00000000000E+00  0.97688060727E+03  0.97688060727E+03  0.00000000000E+00 0.  1.
         21   -1    0    0  502  503 -0.00000000000E+00 -0.00000000000E+00 -0.39987567573E+01  0.39987567573E+01  0.00000000000E+00 0.  1.
         25    2    1    2    0    0  0.35527136788E-14  0.00000000000E+00  0.97288185051E+03  0.98087936402E+03  0.12500092687E+03 0.  0.
    9000006    2    3    3    0    0  0.13432249372E+02  0.53307651594E+01  0.56391426594E+03  0.56728130681E+03  0.59999494507E+02 0.  0.
    9000007    2    3    3    0    0 -0.13432249372E+02 -0.53307651594E+01  0.40896758456E+03  0.41359805721E+03  0.60000211043E+02 0.  0.
          5    1    4    4  501    0  0.29473867269E+02  0.16715845342E+02  0.46849159675E+03  0.46973885784E+03  0.47000000000E+01 0. -1.
         -5    1    4    4    0  501 -0.16041617897E+02 -0.11385080183E+02  0.95422669196E+02  0.97542448975E+02  0.47000000000E+01 0. -1.
         12    1    5    5    0    0 -0.25154500617E+02  0.20103447212E+02  0.26339831726E+03  0.26535932436E+03  0.00000000000E+00 0.  1.
        -12    1    5    5    0    0  0.11722251245E+02 -0.25434212372E+02  0.14556926731E+03  0.14823873285E+03  0.00000000000E+00 0.  1.
<mgrwt>
<rscale>  0 0.12500093E+03</rscale>
<asrwt>0</asrwt>
<pdfrwt beam="1">  1       21 0.15028913E+00 0.12500093E+03</pdfrwt>
<pdfrwt beam="2">  1       21 0.61519412E-03 0.12500093E+03</pdfrwt>
<totfact> 0.24101952E+06</totfact>
</mgrwt>
</event>
<event>
 9    1  0.4458519E-002  0.1249985E+03  0.7818608E-02  0.1235072E+00
         21   -1    0    0  503  502  0.00000000000E+00  0.00000000000E+00  0.14918063987E+03  0.14918063987E+03  0.00000000000E+00 0.  1.
         21   -1    0    0  502  503 -0.00000000000E+00 -0.00000000000E+00 -0.26184071835E+02  0.26184071835E+02  0.00000000000E+00 0.  1.
         25    2    1    2    0    0  0.17763568394E-14 -0.17763568394E-14  0.12299656804E+03  0.17536471171E+03  0.12499850544E+03 0.  0.
    9000006    2    3    3    0    0 -0.26231474993E+01 -0.14580827727E+02  0.48437311914E+02  0.78521658214E+02  0.59999968193E+02 0.  0.
    9000007    2    3    3    0    0  0.26231474993E+01  0.14580827727E+02  0.74559256123E+02  0.96843053494E+02  0.60000107470E+02 0.  0.
          5    1    4    4  501    0 -0.80293327478E+01  0.20196096264E+02  0.33026555383E+02  0.39814518070E+02  0.47000000000E+01 0. -1.
         -5    1    4    4    0  501  0.54061852484E+01 -0.34776923991E+02  0.15410756531E+02  0.38707140144E+02  0.47000000000E+01 0. -1.
         12    1    5    5    0    0  0.18540661893E+02  0.75743961471E+01 -0.25926487090E+00  0.20029848694E+02  0.00000000000E+00 0. -1.
        -12    1    5    5    0    0 -0.15917514394E+02  0.70064315801E+01  0.74818520994E+02  0.76813204800E+02  0.00000000000E+00 0. -1.
<mgrwt>
<rscale>  0 0.12499851E+03</rscale>
<asrwt>0</asrwt>
<pdfrwt beam="1">  1       21 0.22950867E-01 0.12499851E+03</pdfrwt>
<pdfrwt beam="2">  1       21 0.40283188E-02 0.12499851E+03</pdfrwt>
<totfact> 0.67689869E+06</totfact>
</mgrwt>
</event>
<event>
 9    1  0.4458519E-002  0.1249983E+03  0.7818608E-02  0.1235072E+00
         21   -1    0    0  503  502  0.00000000000E+00  0.00000000000E+00  0.90208019469E+01  0.90208019469E+01  0.00000000000E+00 0. -1.
         21   -1    0    0  502  503 -0.00000000000E+00 -0.00000000000E+00 -0.43301536162E+03  0.43301536162E+03  0.00000000000E+00 0. -1.
         25    2    1    2    0    0 -0.17763568394E-14  0.00000000000E+00 -0.42399455967E+03  0.44203616356E+03  0.12499833306E+03 0.  0.
    9000006    2    3    3    0    0 -0.70805654596E+01  0.22755088429E+01 -0.15599500837E+03  0.16730164683E+03  0.60000717059E+02 0.  0.
    9000007    2    3    3    0    0  0.70805654596E+01 -0.22755088429E+01 -0.26799955130E+03  0.27473451674E+03  0.59999857006E+02 0.  0.
          5    1    4    4  501    0 -0.43487778662E+01 -0.13563989653E+02 -0.56522493006E+01  0.16029086262E+02  0.47000000000E+01 0.  1.
         -5    1    4    4    0  501 -0.27317875934E+01  0.15839498495E+02 -0.15034275907E+03  0.15127256057E+03  0.47000000000E+01 0.  1.
         12    1    5    5    0    0 -0.78043844517E+01 -0.75111679261E+01 -0.25210591837E+03  0.25233850308E+03  0.00000000000E+00 0. -1.
        -12    1    5    5    0    0  0.14884949911E+02  0.52356590833E+01 -0.15893632934E+02  0.22396013658E+02  0.00000000000E+00 0. -1.
<mgrwt>
<rscale>  0 0.12499833E+03</rscale>
<asrwt>0</asrwt>
<pdfrwt beam="1">  1       21 0.13878153E-02 0.12499833E+03</pdfrwt>
<pdfrwt beam="2">  1       21 0.66617767E-01 0.12499833E+03</pdfrwt>
<totfact> 0.45374512E+06</totfact>
</mgrwt>
</event>
<event>
 9    1  0.4458519E-002  0.1250008E+03  0.7818608E-02  0.1235068E+00
         21   -1    0    0  503  502  0.00000000000E+00  0.00000000000E+00  0.33612587040E+02  0.33612587040E+02  0.00000000000E+00 0.  1.
         21   -1    0    0  502  503 -0.00000000000E+00 -0.00000000000E+00 -0.11621546209E+03  0.11621546209E+03  0.00000000000E+00 0.  1.
         25    2    1    2    0    0 -0.17763568394E-14  0.00000000000E+00 -0.82602875050E+02  0.14982804913E+03  0.12500083736E+03 0.  0.
    9000006    2    3    3    0    0  0.13420867996E+02  0.26850103058E+01 -0.28226258196E+02  0.67705044411E+02  0.59999353403E+02 0.  0.
    9000007    2    3    3    0    0 -0.13420867996E+02 -0.26850103058E+01 -0.54376616854E+02  0.82123004720E+02  0.60000353879E+02 0.  0.
          5    1    4    4  501    0  0.24881324813E+02  0.59565935512E+00  0.10179303930E+02  0.27297314209E+02  0.47000000000E+01 0.  1.
         -5    1    4    4    0  501 -0.11460456817E+02  0.20893509507E+01 -0.38405562126E+02  0.40407730202E+02  0.47000000000E+01 0.  1.
         12    1    5    5    0    0 -0.23573173578E+02  0.21861495824E+02 -0.41797692296E+02  0.52732026260E+02  0.00000000000E+00 0.  1.
        -12    1    5    5    0    0  0.10152305582E+02 -0.24546506130E+02 -0.12578924558E+02  0.29390978460E+02  0.00000000000E+00 0.  1.
<mgrwt>
<rscale>  0 0.12500084E+03</rscale>
<asrwt>0</asrwt>
<pdfrwt beam="1">  1       21 0.51711672E-02 0.12500084E+03</pdfrwt>
<pdfrwt beam="2">  1       21 0.17879302E-01 0.12500084E+03</pdfrwt>
<totfact> 0.70779299E+06</totfact>
</mgrwt>
</event>
<event>
 9    1  0.4458519E-002  0.1250266E+03  0.7818608E-02  0.1235028E+00
         21   -1    0    0  503  502  0.00000000000E+00  0.00000000000E+00  0.54658620261E+01  0.54658620261E+01  0.00000000000E+00 0.  1.
         21   -1    0    0  502  503 -0.00000000000E+00 -0.00000000000E+00 -0.71496687076E+03  0.71496687076E+03  0.00000000000E+00 0.  1.
         25    2    1    2    0    0  0.00000000000E+00 -0.35527136788E-14 -0.70950100873E+03  0.72043273279E+03  0.12502656148E+03 0.  0.
    9000006    2    3    3    0    0  0.46845177850E+01 -0.10057648029E+02 -0.27651464322E+03  0.28316819509E+03  0.60006481363E+02 0.  0.
    9000007    2    3    3    0    0 -0.46845177850E+01  0.10057648029E+02 -0.43298636552E+03  0.43726453770E+03  0.59999851778E+02 0.  0.
          5    1    4    4  501    0 -0.52495303652E+01 -0.85918864302E+01 -0.63936904553E+01  0.12819803396E+02  0.47000000000E+01 0. -1.
         -5    1    4    4    0  501  0.99340481502E+01 -0.14657615990E+01 -0.27012095276E+03  0.27034839169E+03  0.47000000000E+01 0. -1.
         12    1    5    5    0    0  0.81190865626E+01  0.28341212682E+02 -0.12332850791E+03  0.12680325220E+03  0.00000000000E+00 0. -1.
        -12    1    5    5    0    0 -0.12803604348E+02 -0.18283564652E+02 -0.30965785760E+03  0.31046128550E+03  0.00000000000E+00 0. -1.
<mgrwt>
<rscale>  0 0.12502656E+03</rscale>
<asrwt>0</asrwt>
<pdfrwt beam="1">  1       21 0.84090204E-03 0.12502656E+03</pdfrwt>
<pdfrwt beam="2">  1       21 0.10999488E+00 0.12502656E+03</pdfrwt>
<totfact> 0.32115985E+06</totfact>
</mgrwt>
</event>
<event>
 9    1  0.4458519E-002  0.1250196E+03  0.7818608E-02  0.1235039E+00
         21   -1    0    0  503  502  0.00000000000E+00  0.00000000000E+00  0.77141344471E+01  0.77141344471E+01  0.00000000000E+00 0. -1.
         21   -1    0    0  502  503 -0.00000000000E+00 -0.00000000000E+00 -0.50653488169E+03  0.50653488169E+03  0.00000000000E+00 0. -1.
         25    2    1    2    0    0  0.17763568394E-14  0.35527136788E-14 -0.49882074724E+03  0.51424901613E+03  0.12501964933E+03 0.  0.
    9000006    2    3    3    0    0 -0.81334426412E+01  0.10525954053E+02 -0.20241604180E+03  0.21154020077E+03  0.60000449715E+02 0.  0.
    9000007    2    3    3    0    0  0.81334426412E+01 -0.10525954053E+02 -0.29640470544E+03  0.30270881537E+03  0.59999407448E+02 0.  0.
          5    1    4    4  501    0  0.13062246413E+02 -0.17699026640E+02 -0.11446201778E+03  0.11665128091E+03  0.47000000000E+01 0.  1.
         -5    1    4    4    0  501 -0.21195689054E+02  0.28224980693E+02 -0.87954024020E+02  0.94888919854E+02  0.47000000000E+01 0.  1.
         12    1    5    5    0    0  0.22461972846E+02  0.16781067279E+02 -0.18508387977E+03  0.18719558487E+03  0.00000000000E+00 0.  1.
        -12    1    5    5    0    0 -0.14328530205E+02 -0.27307021332E+02 -0.11132082568E+03  0.11551323050E+03  0.00000000000E+00 0.  1.
<mgrwt>
<rscale>  0 0.12501965E+03</rscale>
<asrwt>0</asrwt>
<pdfrwt beam="1">  1       21 0.11867894E-02 0.12501965E+03</pdfrwt>
<pdfrwt beam="2">  1       21 0.77928479E-01 0.12501965E+03</pdfrwt>
<totfact> 0.41261514E+06</totfact>
</mgrwt>
</event>
<event>
 9    1  0.4458519E-002  0.1249997E+03  0.7818608E-02  0.1235070E+00
         21   -1    0    0  503  502  0.00000000000E+00  0.00000000000E+00  0.82929038699E+02  0.82929038699E+02  0.00000000000E+00 0. -1.
         21   -1    0    0  502  503 -0.00000000000E+00 -0.00000000000E+00 -0.47103335960E+02  0.47103335960E+02  0.00000000000E+00 0. -1.
         25    2    1    2    0    0  0.00000000000E+00  0.35527136788E-14  0.35825702739E+02  0.13003237466E+03  0.12499974993E+03 0.  0.
    9000006    2    3    3    0    0 -0.10652848815E+02  0.13054960997E+02  0.12985276129E+02  0.63660155312E+02  0.60000689860E+02 0.  0.
    9000007    2    3    3    0    0  0.10652848815E+02 -0.13054960997E+02  0.22840426609E+02  0.66372219347E+02  0.59997260094E+02 0.  0.
          5    1    4    4  501    0 -0.25235033681E+02  0.71109739843E+01  0.29922900379E+02  0.40060489799E+02  0.47000000000E+01 0. -1.
         -5    1    4    4    0  501  0.14582184866E+02  0.59439870125E+01 -0.16937624250E+02  0.23599665513E+02  0.47000000000E+01 0. -1.
         12    1    5    5    0    0  0.29984095808E+02  0.40004734783E+01  0.26647582103E+02  0.40313067626E+02  0.00000000000E+00 0.  1.
        -12    1    5    5    0    0 -0.19331246994E+02 -0.17055434475E+02 -0.38071554932E+01  0.26059151721E+02  0.00000000000E+00 0.  1.
<mgrwt>
<rscale>  0 0.12499975E+03</rscale>
<asrwt>0</asrwt>
<pdfrwt beam="1">  1       21 0.12758314E-01 0.12499975E+03</pdfrwt>
<pdfrwt beam="2">  1       21 0.72466671E-02 0.12499975E+03</pdfrwt>
<totfact> 0.73361057E+06</totfact>
</mgrwt>
</event>
<event>
 9    1  0.4458519E-002  0.1250074E+03  0.7818608E-02  0.1235058E+00
         21   -1    0    0  503  502  0.00000000000E+00  0.00000000000E+00  0.62353021666E+01  0.62353021666E+01  0.00000000000E+00 0.  1.
         21   -1    0    0  502  503 -0.00000000000E+00 -0.00000000000E+00 -0.62654698802E+03  0.62654698802E+03  0.00000000000E+00 0.  1.
         25    2    1    2    0    0 -0.35527136788E-14  0.35527136788E-14 -0.62031168585E+03  0.63278229019E+03  0.12500735645E+03 0.  0.
    9000006    2    3    3    0    0 -0.11494136129E+02  0.13151663746E+02 -0.31618343332E+03  0.32229962660E+03  0.60000036517E+02 0.  0.
    9000007    2    3    3    0    0  0.11494136129E+02 -0.13151663746E+02 -0.30412825254E+03  0.31048266358E+03  0.60003407972E+02 0.  0.
          5    1    4    4  501    0  0.14453394968E+01  0.12885104021E+02 -0.30274675125E+03  0.30306072049E+03  0.47000000000E+01 0. -1.
         -5    1    4    4    0  501 -0.12939475625E+02  0.26655972469E+00 -0.13436682065E+02  0.19238906114E+02  0.47000000000E+01 0. -1.
         12    1    5    5    0    0 -0.29627756748E+01 -0.65461661758E+00 -0.27848800406E+03  0.27850453312E+03  0.00000000000E+00 0.  1.
        -12    1    5    5    0    0  0.14456911803E+02 -0.12497047129E+02 -0.25640248476E+02  0.31978130460E+02  0.00000000000E+00 0.  1.
<mgrwt>
<rscale>  0 0.12500736E+03</rscale>
<asrwt>0</asrwt>
<pdfrwt beam="1">  1       21 0.95927744E-03 0.12500736E+03</pdfrwt>
<pdfrwt beam="2">  1       21 0.96391826E-01 0.12500736E+03</pdfrwt>
<totfact> 0.35644336E+06</totfact>
</mgrwt>
</event>
<event>
 9    1  0.4458519E-002  0.1249952E+03  0.7818608E-02  0.1235077E+00
         21   -1    0    0  503  502  0.00000000000E+00  0.00000000000E+00  0.54538910202E+02  0.54538910202E+02  0.00000000000E+00 0.  1.
         21   -1    0    0  502  503 -0.00000000000E+00 -0.00000000000E+00 -0.71617709860E+02  0.71617709860E+02  0.00000000000E+00 0.  1.
         25    2    1    2    0    0  0.00000000000E+00  0.00000000000E+00 -0.17078799658E+02  0.12615662006E+03  0.12499522946E+03 0.  0.
    9000006    2    3    3    0    0  0.93788002953E+01  0.10868518231E+02  0.15441720802E+01  0.61713687928E+02  0.60000901882E+02 0.  0.
    9000007    2    3    3    0    0 -0.93788002953E+01 -0.10868518231E+02 -0.18622971738E+02  0.64442932134E+02  0.59999915351E+02 0.  0.
          5    1    4    4  501    0  0.23690746182E+02  0.23492501998E+02  0.16016113945E+02  0.37306232867E+02  0.47000000000E+01 0. -1.
         -5    1    4    4    0  501 -0.14311945887E+02 -0.12623983767E+02 -0.14471941865E+02  0.24407455061E+02  0.47000000000E+01 0. -1.
         12    1    5    5    0    0  0.12013049009E+02  0.13417897171E+02  0.10548930096E+02  0.20871828792E+02  0.00000000000E+00 0. -1.
        -12    1    5    5    0    0 -0.21391849304E+02 -0.24286415402E+02 -0.29171901835E+02  0.43571103341E+02  0.00000000000E+00 0. -1.
<mgrwt>
<rscale>  0 0.12499523E+03</rscale>
<asrwt>0</asrwt>
<pdfrwt beam="1">  1       21 0.83906016E-02 0.12499523E+03</pdfrwt>
<pdfrwt beam="2">  1       21 0.11018109E-01 0.12499523E+03</pdfrwt>
<totfact> 0.73893467E+06</totfact>
</mgrwt>
</event>
<event>
 9    1  0.4458519E-002  0.1250031E+03  0.7818608E-02  0.1235064E+00
         21   -1    0    0  503  502  0.00000000000E+00  0.00000000000E+00  0.45474687190E+03  0.45474687190E+03  0.00000000000E+00 0.  1.
         21   -1    0    0  502  503 -0.00000000000E+00 -0.00000000000E+00 -0.85903706456E+01  0.85903706456E+01  0.00000000000E+00 0.  1.
         25    2    1    2    0    0  0.00000000000E+00  0.00000000000E+00  0.44615650125E+03  0.46333724254E+03  0.12500310683E+03 0.  0.
    9000006    2    3    3    0    0  0.71432404413E+01 -0.79293230502E+01  0.27451527920E+03  0.28119846691E+03  0.60000326927E+02 0.  0.
    9000007    2    3    3    0    0 -0.71432404413E+01  0.79293230502E+01  0.17164122205E+03  0.18213877563E+03  0.59999370271E+02 0.  0.
          5    1    4    4  501    0  0.26218343892E+02 -0.14643571469E+02  0.80026429340E+02  0.85604644353E+02  0.47000000000E+01 0. -1.
         -5    1    4    4    0  501 -0.19075103451E+02  0.67142484188E+01  0.19448884986E+03  0.19559382256E+03  0.47000000000E+01 0. -1.
         12    1    5    5    0    0 -0.20802830977E+02 -0.59017686611E+01  0.20645569887E+02  0.29896959811E+02  0.00000000000E+00 0.  1.
        -12    1    5    5    0    0  0.13659590536E+02  0.13831091711E+02  0.15099565216E+03  0.15224181582E+03  0.00000000000E+00 0.  1.
<mgrwt>
<rscale>  0 0.12500311E+03</rscale>
<asrwt>0</asrwt>
<pdfrwt beam="1">  1       21 0.69961038E-01 0.12500311E+03</pdfrwt>
<pdfrwt beam="2">  1       21 0.13215958E-02 0.12500311E+03</pdfrwt>
<totfact> 0.44101397E+06</totfact>
</mgrwt>
</event>
<event>
 9    1  0.4458519E-002  0.1249954E+03  0.7818608E-02  0.1235076E+00
         21   -1    0    0  503  502  0.00000000000E+00  0.00000000000E+00  0.60531392757E+03  0.60531392757E+03  0.00000000000E+00 0.  1.
         21   -1    0    0  502  503 -0.00000000000E+00 -0.00000000000E+00 -0.64527909064E+01  0.64527909064E+01  0.00000000000E+00 0.  1.
         25    2    1    2    0    0  0.17763568394E-14 -0.17763568394E-14  0.59886113667E+03  0.61176671848E+03  0.12499542723E+03 0.  0.
    9000006    2    3    3    0    0  0.59060885369E+01 -0.15997316035E+02  0.31849909099E+03  0.32454955256E+03  0.59999542557E+02 0.  0.
    9000007    2    3    3    0    0 -0.59060885369E+01  0.15997316035E+02  0.28036204568E+03  0.28721716591E+03  0.60000231145E+02 0.  0.
          5    1    4    4  501    0  0.19089083146E+02 -0.33703018378E+02  0.22552811338E+03  0.22887836610E+03  0.47000000000E+01 0.  1.
         -5    1    4    4    0  501 -0.13182994609E+02  0.17705702342E+02  0.92970977608E+02  0.95671186466E+02  0.47000000000E+01 0.  1.
         12    1    5    5    0    0 -0.27658095258E+02 -0.83729813133E+01  0.15488941281E+03  0.15756207427E+03  0.00000000000E+00 0. -1.
        -12    1    5    5    0    0  0.21752006721E+02  0.24370297349E+02  0.12547263287E+03  0.12965509164E+03  0.00000000000E+00 0. -1.
<mgrwt>
<rscale>  0 0.12499543E+03</rscale>
<asrwt>0</asrwt>
<pdfrwt beam="1">  1       21 0.93125175E-01 0.12499543E+03</pdfrwt>
<pdfrwt beam="2">  1       21 0.99273754E-03 0.12499543E+03</pdfrwt>
<totfact> 0.36570011E+06</totfact>
</mgrwt>
</event>
<event>
 9    1  0.4458519E-002  0.1250023E+03  0.7818608E-02  0.1235066E+00
         21   -1    0    0  503  502  0.00000000000E+00  0.00000000000E+00  0.24961909411E+02  0.24961909411E+02  0.00000000000E+00 0. -1.
         21   -1    0    0  502  503 -0.00000000000E+00 -0.00000000000E+00 -0.15649411023E+03  0.15649411023E+03  0.00000000000E+00 0. -1.
         25    2    1    2    0    0  0.00000000000E+00  0.00000000000E+00 -0.13153220082E+03  0.18145601964E+03  0.12500226883E+03 0.  0.
    9000006    2    3    3    0    0  0.74130598448E+01 -0.15188358287E+02 -0.59152817493E+02  0.85934194224E+02  0.59999918632E+02 0.  0.
    9000007    2    3    3    0    0 -0.74130598448E+01  0.15188358287E+02 -0.72379383327E+02  0.95521825418E+02  0.60000035973E+02 0.  0.
          5    1    4    4  501    0 -0.26691709503E+01 -0.19095412003E+02 -0.68228104749E+02  0.71055777462E+02  0.47000000000E+01 0.  1.
         -5    1    4    4    0  501  0.10082230795E+02  0.39070537167E+01  0.90752872559E+01  0.14878416762E+02  0.47000000000E+01 0.  1.
         12    1    5    5    0    0  0.28716986501E+01  0.33257680323E+02 -0.19401209433E+02  0.38609932414E+02  0.00000000000E+00 0.  1.
        -12    1    5    5    0    0 -0.10284758495E+02 -0.18069322036E+02 -0.52978173894E+02  0.56911893004E+02  0.00000000000E+00 0.  1.
<mgrwt>
<rscale>  0 0.12500227E+03</rscale>
<asrwt>0</asrwt>
<pdfrwt beam="1">  1       21 0.38402937E-02 0.12500227E+03</pdfrwt>
<pdfrwt beam="2">  1       21 0.24076017E-01 0.12500227E+03</pdfrwt>
<totfact> 0.66981044E+06</totfact>
</mgrwt>
</event>
<event>
 9    1  0.4458519E-002  0.1250320E+03  0.7818608E-02  0.1235019E+00
         21   -1    0    0  503  502  0.00000000000E+00  0.00000000000E+00  0.22608252806E+02  0.22608252806E+02  0.00000000000E+00 0. -1.
         21   -1    0    0  502  503 -0.00000000000E+00 -0.00000000000E+00 -0.17286829680E+03  0.17286829680E+03  0.00000000000E+00 0. -1.
         25    2    1    2    0    0 -0.88817841970E-15 -0.17763568394E-14 -0.15026004400E+03  0.19547654961E+03  0.12503199840E+03 0.  0.
    9000006    2    3    3    0    0  0.36717142569E+01  0.61512555364E+01 -0.10019064861E+03  0.11700241655E+03  0.60000666490E+02 0.  0.
    9000007    2    3    3    0    0 -0.36717142569E+01 -0.61512555364E+01 -0.50069395386E+02  0.78474133058E+02  0.59999381453E+02 0.  0.
          5    1    4    4  501    0 -0.27640774804E+02  0.59249717375E+01 -0.51066176773E+02  0.58557340548E+02  0.47000000000E+01 0. -1.
         -5    1    4    4    0  501  0.31312489061E+02  0.22628379894E+00 -0.49124471839E+02  0.58445076003E+02  0.47000000000E+01 0. -1.
         12    1    5    5    0    0  0.72346458647E+01  0.18240399496E+02 -0.47785709637E+02  0.51657780828E+02  0.00000000000E+00 0.  1.
        -12    1    5    5    0    0 -0.10906360122E+02 -0.24391655033E+02 -0.22836857488E+01  0.26816352230E+02  0.00000000000E+00 0.  1.
<mgrwt>
<rscale>  0 0.12503200E+03</rscale>
<asrwt>0</asrwt>
<pdfrwt beam="1">  1       21 0.34781928E-02 0.12503200E+03</pdfrwt>
<pdfrwt beam="2">  1       21 0.26595122E-01 0.12503200E+03</pdfrwt>
<totfact> 0.65365910E+06</totfact>
</mgrwt>
</event>
<event>
 9    1  0.4458519E-002  0.1249992E+03  0.7818608E-02  0.1235071E+00
         21   -1    0    0  503  502  0.00000000000E+00  0.00000000000E+00  0.27094972000E+03  0.27094972000E+03  0.00000000000E+00 0. -1.
         21   -1    0    0  502  503 -0.00000000000E+00 -0.00000000000E+00 -0.14416692210E+02  0.14416692210E+02  0.00000000000E+00 0. -1.
         25    2    1    2    0    0  0.00000000000E+00  0.00000000000E+00  0.25653302779E+03  0.28536641221E+03  0.12499917948E+03 0.  0.
    9000006    2    3    3    0    0 -0.53780580374E+01  0.13852988373E+02  0.14933473970E+03  0.16162372493E+03  0.60004459694E+02 0.  0.
    9000007    2    3    3    0    0  0.53780580374E+01 -0.13852988373E+02  0.10719828809E+03  0.12374268728E+03  0.59999590761E+02 0.  0.
          5    1    4    4  501    0 -0.26948174247E+02  0.11262809147E+02  0.38345386472E+02  0.48430503082E+02  0.47000000000E+01 0. -1.
         -5    1    4    4    0  501  0.21570116210E+02  0.25901792262E+01  0.11098935323E+03  0.11319322185E+03  0.47000000000E+01 0. -1.
         12    1    5    5    0    0  0.14031258700E+02 -0.88764879070E+01  0.53349891057E+00  0.16611829500E+02  0.00000000000E+00 0. -1.
        -12    1    5    5    0    0 -0.86532006622E+01 -0.49765004658E+01  0.10666478918E+03  0.10713085778E+03  0.00000000000E+00 0. -1.
<mgrwt>
<rscale>  0 0.12499918E+03</rscale>
<asrwt>0</asrwt>
<pdfrwt beam="1">  1       21 0.41684569E-01 0.12499918E+03</pdfrwt>
<pdfrwt beam="2">  1       21 0.22179528E-02 0.12499918E+03</pdfrwt>
<totfact> 0.56695810E+06</totfact>
</mgrwt>
</event>
<event>
 9    1  0.4458519E-002  0.1250016E+03  0.7818608E-02  0.1235067E+00
         21   -1    0    0  503  502  0.00000000000E+00  0.00000000000E+00  0.17684011008E+03  0.17684011008E+03  0.00000000000E+00 0. -1.
         21   -1    0    0  502  503 -0.00000000000E+00 -0.00000000000E+00 -0.22089737676E+02  0.22089737676E+02  0.00000000000E+00 0. -1.
         25    2    1    2    0    0  0.00000000000E+00 -0.17763568394E-14  0.15475037241E+03  0.19892984776E+03  0.12500162627E+03 0.  0.
    9000006    2    3    3    0    0 -0.12752210678E+02 -0.65465308279E+01  0.93353237667E+02  0.11189467940E+03  0.60000969594E+02 0.  0.
    9000007    2    3    3    0    0  0.12752210678E+02  0.65465308279E+01  0.61397134739E+02  0.87035168358E+02  0.60000303614E+02 0.  0.
          5    1    4    4  501    0  0.22729022002E+02  0.61489058591E+00  0.23247852578E+02  0.32856341566E+02  0.47000000000E+01 0.  1.
         -5    1    4    4    0  501 -0.35481232680E+02 -0.71614214138E+01  0.70105385089E+02  0.79038337835E+02  0.47000000000E+01 0.  1.
         12    1    5    5    0    0  0.23390495316E+02 -0.14438453806E+02  0.56744940711E+02  0.63052141246E+02  0.00000000000E+00 0.  1.
        -12    1    5    5    0    0 -0.10638284639E+02  0.20984984634E+02  0.46521940284E+01  0.23983027111E+02  0.00000000000E+00 0.  1.
<mgrwt>
<rscale>  0 0.12500163E+03</rscale>
<asrwt>0</asrwt>
<pdfrwt beam="1">  1       21 0.27206170E-01 0.12500163E+03</pdfrwt>
<pdfrwt beam="2">  1       21 0.33984213E-02 0.12500163E+03</pdfrwt>
<totfact> 0.65040717E+06</totfact>
</mgrwt>
</event>
<event>
 9    1  0.4458519E-002  0.1249985E+03  0.7818608E-02  0.1235072E+00
         21   -1    0    0  503  502  0.00000000000E+00  0.00000000000E+00  0.77671773287E+02  0.77671773287E+02  0.00000000000E+00 0. -1.
         21   -1    0    0  502  503 -0.00000000000E+00 -0.00000000000E+00 -0.50290530902E+02  0.50290530902E+02  0.00000000000E+00 0. -1.
         25    2    1    2    0    0  0.00000000000E+00  0.00000000000E+00  0.27381242385E+02  0.12796230419E+03  0.12499847543E+03 0.  0.
    9000006    2    3    3    0    0  0.10713054403E+02 -0.15388977182E+00  0.27845484684E+02  0.67009487151E+02  0.60000892779E+02 0.  0.
    9000007    2    3    3    0    0 -0.10713054403E+02  0.15388977182E+00 -0.46424229904E+00  0.60952817038E+02  0.60001976361E+02 0.  0.
          5    1    4    4  501    0  0.14144173235E+02  0.12864681406E+02  0.42329139158E+02  0.46684083862E+02  0.47000000000E+01 0. -1.
         -5    1    4    4    0  501 -0.34311188312E+01 -0.13018571178E+02 -0.14483654474E+02  0.20325403289E+02  0.47000000000E+01 0. -1.
         12    1    5    5    0    0  0.21388624603E+02 -0.14188475467E+02 -0.21175358648E+01  0.25754029910E+02  0.00000000000E+00 0.  1.
        -12    1    5    5    0    0 -0.32101679006E+02  0.14342365239E+02  0.16532935657E+01  0.35198787128E+02  0.00000000000E+00 0.  1.
<mgrwt>
<rscale>  0 0.12499848E+03</rscale>
<asrwt>0</asrwt>
<pdfrwt beam="1">  1       21 0.11949504E-01 0.12499848E+03</pdfrwt>
<pdfrwt beam="2">  1       21 0.77370048E-02 0.12499848E+03</pdfrwt>
<totfact> 0.73641518E+06</totfact>
</mgrwt>
</event>
<event>
 9    1  0.4458519E-002  0.1250067E+03  0.7818608E-02  0.1235059E+00
         21   -1    0    0  503  502  0.00000000000E+00  0.00000000000E+00  0.81981324470E+03  0.81981324470E+03  0.00000000000E+00 0. -1.
         21   -1    0    0  502  503 -0.00000000000E+00 -0.00000000000E+00 -0.47653129838E+01  0.47653129838E+01  0.00000000000E+00 0. -1.
         25    2    1    2    0    0  0.00000000000E+00  0.00000000000E+00  0.81504793171E+03  0.82457855768E+03  0.12500666701E+03 0.  0.
    9000006    2    3    3    0    0 -0.15007200777E+02  0.54625095084E+01  0.45526996215E+03  0.45948425434E+03  0.59999887149E+02 0.  0.
    9000007    2    3    3    0    0  0.15007200777E+02 -0.54625095084E+01  0.35977796956E+03  0.36509430335E+03  0.59988397788E+02 0.  0.
          5    1    4    4  501    0 -0.26279791550E+02 -0.26119432873E+01  0.42514010101E+03  0.42598549879E+03  0.47000000000E+01 0. -1.
         -5    1    4    4    0  501  0.11272590773E+02  0.80744527958E+01  0.30129861147E+02  0.33498755551E+02  0.47000000000E+01 0. -1.
         12    1    5    5    0    0 -0.31665533769E+01 -0.26089512248E+02  0.85651479116E+02  0.89592776407E+02  0.00000000000E+00 0.  1.
        -12    1    5    5    0    0  0.18173754154E+02  0.20627002739E+02  0.27412649044E+03  0.27550152694E+03  0.00000000000E+00 0.  1.
<mgrwt>
<rscale>  0 0.12500667E+03</rscale>
<asrwt>0</asrwt>
<pdfrwt beam="1">  1       21 0.12612500E+00 0.12500667E+03</pdfrwt>
<pdfrwt beam="2">  1       21 0.73312573E-03 0.12500667E+03</pdfrwt>
<totfact> 0.28559811E+06</totfact>
</mgrwt>
</event>
<event>
 9    1  0.4458519E-002  0.1250025E+03  0.7818608E-02  0.1235065E+00
         21   -1    0    0  503  502  0.00000000000E+00  0.00000000000E+00  0.22519096024E+02  0.22519096024E+02  0.00000000000E+00 0.  1.
         21   -1    0    0  502  503 -0.00000000000E+00 -0.00000000000E+00 -0.17347070098E+03  0.17347070098E+03  0.00000000000E+00 0.  1.
         25    2    1    2    0    0 -0.17763568394E-14 -0.17763568394E-14 -0.15095160495E+03  0.19598979700E+03  0.12500245394E+03 0.  0.
    9000006    2    3    3    0    0  0.11463075373E+02 -0.11889878395E+02 -0.84571563272E+02  0.10500049184E+03  0.59999855562E+02 0.  0.
    9000007    2    3    3    0    0 -0.11463075373E+02  0.11889878395E+02 -0.66380041680E+02  0.90989305158E+02  0.59999770121E+02 0.  0.
          5    1    4    4  501    0  0.19685840263E+02 -0.22309403174E+01 -0.88581007539E+02  0.90891112317E+02  0.47000000000E+01 0. -1.
         -5    1    4    4    0  501 -0.82227648908E+01 -0.96589380771E+01  0.40094442674E+01  0.14109379524E+02  0.47000000000E+01 0. -1.
         12    1    5    5    0    0 -0.32548432912E+02 -0.68622624665E+01 -0.28831325964E+02  0.44019728395E+02  0.00000000000E+00 0.  1.
        -12    1    5    5    0    0  0.21085357539E+02  0.18752140861E+02 -0.37548715715E+02  0.46969576763E+02  0.00000000000E+00 0.  1.
<mgrwt>
<rscale>  0 0.12500245E+03</rscale>
<asrwt>0</asrwt>
<pdfrwt beam="1">  1       21 0.34644764E-02 0.12500245E+03</pdfrwt>
<pdfrwt beam="2">  1       21 0.26687800E-01 0.12500245E+03</pdfrwt>
<totfact> 0.65358793E+06</totfact>
</mgrwt>
</event>
<event>
 9    1  0.4458519E-002  0.1249986E+03  0.7818608E-02  0.1235071E+00
         21   -1    0    0  503  502  0.00000000000E+00  0.00000000000E+00  0.19089778861E+02  0.19089778861E+02  0.00000000000E+00 0.  1.
         21   -1    0    0  502  503 -0.00000000000E+00 -0.00000000000E+00 -0.20462061588E+03  0.20462061588E+03  0.00000000000E+00 0.  1.
         25    2    1    2    0    0 -0.17763568394E-14  0.22204460493E-14 -0.18553083702E+03  0.22371039475E+03  0.12499859691E+03 0.  0.
    9000006    2    3    3    0    0 -0.10994745315E+02  0.12378682061E+01 -0.68507046128E+02  0.91737718679E+02  0.60001474291E+02 0.  0.
    9000007    2    3    3    0    0  0.10994745315E+02 -0.12378682061E+01 -0.11702379090E+03  0.13197267607E+03  0.59998357062E+02 0.  0.
          5    1    4    4  501    0 -0.15767522275E+02  0.17727551544E+01  0.54907203397E+01  0.17435464702E+02  0.47000000000E+01 0.  1.
         -5    1    4    4    0  501  0.47727769594E+01 -0.53488694829E+00 -0.73997766468E+02  0.74302253978E+02  0.47000000000E+01 0.  1.
         12    1    5    5    0    0 -0.17047448160E+01 -0.23444686908E+02 -0.17748912213E+02  0.29454768440E+02  0.00000000000E+00 0.  1.
        -12    1    5    5    0    0  0.12699490131E+02  0.22206818702E+02 -0.99274878683E+02  0.10251790763E+03  0.00000000000E+00 0.  1.
<mgrwt>
<rscale>  0 0.12499860E+03</rscale>
<asrwt>0</asrwt>
<pdfrwt beam="1">  1       21 0.29368890E-02 0.12499860E+03</pdfrwt>
<pdfrwt beam="2">  1       21 0.31480095E-01 0.12499860E+03</pdfrwt>
<totfact> 0.62447498E+06</totfact>
</mgrwt>
</event>
<event>
 9    1  0.4458519E-002  0.1250130E+03  0.7818608E-02  0.1235049E+00
         21   -1    0    0  503  502  0.00000000000E+00  0.00000000000E+00  0.28965382498E+02  0.28965382498E+02  0.00000000000E+00 0. -1.
         21   -1    0    0  502  503 -0.00000000000E+00 -0.00000000000E+00 -0.13488727910E+03  0.13488727910E+03  0.00000000000E+00 0. -1.
         25    2    1    2    0    0  0.00000000000E+00  0.00000000000E+00 -0.10592189660E+03  0.16385266160E+03  0.12501298546E+03 0.  0.
    9000006    2    3    3    0    0 -0.52721201627E+01 -0.16562472395E+02 -0.55815392660E+02  0.83771319801E+02  0.60001376822E+02 0.  0.
    9000007    2    3    3    0    0  0.52721201627E+01  0.16562472395E+02 -0.50106503941E+02  0.80081341796E+02  0.60002073495E+02 0.  0.
          5    1    4    4  501    0  0.20985592520E+02 -0.41974893483E+01 -0.14431225816E+01  0.21958747984E+02  0.47000000000E+01 0. -1.
         -5    1    4    4    0  501 -0.26257712683E+02 -0.12364983047E+02 -0.54372270079E+02  0.61812571817E+02  0.47000000000E+01 0. -1.
         12    1    5    5    0    0  0.29143468585E+01  0.38212357014E+02 -0.20908148598E+02  0.43655793705E+02  0.00000000000E+00 0.  1.
        -12    1    5    5    0    0  0.23577733042E+01 -0.21649884619E+02 -0.29198355343E+02  0.36425548091E+02  0.00000000000E+00 0.  1.
<mgrwt>
<rscale>  0 0.12501299E+03</rscale>
<asrwt>0</asrwt>
<pdfrwt beam="1">  1       21 0.44562126E-02 0.12501299E+03</pdfrwt>
<pdfrwt beam="2">  1       21 0.20751889E-01 0.12501299E+03</pdfrwt>
<totfact> 0.69028996E+06</totfact>
</mgrwt>
</event>
<event>
 9    1  0.4458519E-002  0.1249978E+03  0.7818608E-02  0.1235073E+00
         21   -1    0    0  503  502  0.00000000000E+00  0.00000000000E+00  0.37253499943E+02  0.37253499943E+02  0.00000000000E+00 0. -1.
         21   -1    0    0  502  503 -0.00000000000E+00 -0.00000000000E+00 -0.10485215220E+03  0.10485215220E+03  0.00000000000E+00 0. -1.
         25    2    1    2    0    0  0.35527136788E-14  0.17763568394E-14 -0.67598652260E+02  0.14210565215E+03  0.12499775432E+03 0.  0.
    9000006    2    3    3    0    0  0.16682443275E+02  0.40873923616E+01 -0.30003125713E+02  0.69247326873E+02  0.59999950304E+02 0.  0.
    9000007    2    3    3    0    0 -0.16682443275E+02 -0.40873923616E+01 -0.37595526547E+02  0.72858325274E+02  0.59999177123E+02 0.  0.
          5    1    4    4  501    0 -0.12868677918E+02 -0.19609473623E+02 -0.81882140151E+01  0.25283812526E+02  0.47000000000E+01 0.  1.
         -5    1    4    4    0  501  0.29551121193E+02  0.23696865984E+02 -0.21814911698E+02  0.43963514346E+02  0.47000000000E+01 0.  1.
         12    1    5    5    0    0  0.20898390773E+02 -0.51697929478E+01 -0.25481818119E+02  0.33358545392E+02  0.00000000000E+00 0.  1.
        -12    1    5    5    0    0 -0.37580834049E+02  0.10824005862E+01 -0.12113708427E+02  0.39499779881E+02  0.00000000000E+00 0.  1.
<mgrwt>
<rscale>  0 0.12499775E+03</rscale>
<asrwt>0</asrwt>
<pdfrwt beam="1">  1       21 0.57313077E-02 0.12499775E+03</pdfrwt>
<pdfrwt beam="2">  1       21 0.16131100E-01 0.12499775E+03</pdfrwt>
<totfact> 0.71769704E+06</totfact>
</mgrwt>
</event>
<event>
 9    1  0.4458519E-002  0.1250004E+03  0.7818608E-02  0.1235069E+00
         21   -1    0    0  503  502  0.00000000000E+00  0.00000000000E+00  0.53127018628E+02  0.53127018628E+02  0.00000000000E+00 0.  1.
         21   -1    0    0  502  503 -0.00000000000E+00 -0.00000000000E+00 -0.73527125911E+02  0.73527125911E+02  0.00000000000E+00 0.  1.
         25    2    1    2    0    0  0.00000000000E+00  0.35527136788E-14 -0.20400107283E+02  0.12665414454E+03  0.12500043181E+03 0.  0.
    9000006    2    3    3    0    0 -0.64912402397E+01 -0.95747319792E+01  0.31033564149E+01  0.61184156054E+02  0.60000486987E+02 0.  0.
    9000007    2    3    3    0    0  0.64912402397E+01  0.95747319792E+01 -0.23503463697E+02  0.65469988484E+02  0.60000790778E+02 0.  0.
          5    1    4    4  501    0 -0.29245860560E+02 -0.68447315415E+00  0.15445454567E+02  0.33413184975E+02  0.47000000000E+01 0.  1.
         -5    1    4    4    0  501  0.22754620321E+02 -0.88902588251E+01 -0.12342098152E+02  0.27770971079E+02  0.47000000000E+01 0.  1.
         12    1    5    5    0    0  0.17076007593E+02 -0.13424482207E+02  0.96388407449E+01  0.23763712016E+02  0.00000000000E+00 0. -1.
        -12    1    5    5    0    0 -0.10584767354E+02  0.22999214186E+02 -0.33142304442E+02  0.41706276468E+02  0.00000000000E+00 0. -1.
<mgrwt>
<rscale>  0 0.12500043E+03</rscale>
<asrwt>0</asrwt>
<pdfrwt beam="1">  1       21 0.81733875E-02 0.12500043E+03</pdfrwt>
<pdfrwt beam="2">  1       21 0.11311865E-01 0.12500043E+03</pdfrwt>
<totfact> 0.73815484E+06</totfact>
</mgrwt>
</event>
<event>
 8    1  0.4458519E-002  0.1255010E+03  0.7818608E-02  0.1234288E+00
         21   -1    0    0  503  502  0.00000000000E+00  0.00000000000E+00  0.98042792215E+01  0.98042792215E+01  0.00000000000E+00 0.  1.
         21   -1    0    0  502  503 -0.00000000000E+00 -0.00000000000E+00 -0.40162338822E+03  0.40162338822E+03  0.00000000000E+00 0.  1.
    9000006    2    1    2    0    0  0.83723659011E+01  0.43784962434E+01 -0.24758044327E+03  0.25492022251E+03  0.59991467861E+02 0.  0.
    9000007    2    1    2    0    0 -0.83723659011E+01 -0.43784962434E+01 -0.14423866573E+03  0.15650744493E+03  0.60004332234E+02 0.  0.
          5    1    3    3  501    0  0.29173645432E+02  0.17814440097E+02 -0.16542862191E+03  0.16898868250E+03  0.47000000000E+01 0.  1.
         -5    1    3    3    0  501 -0.20801279531E+02 -0.13435943853E+02 -0.82151821357E+02  0.85931540016E+02  0.47000000000E+01 0.  1.
         12    1    4    4    0    0  0.89122973725E+01 -0.41704857180E+01  0.13182345884E+01  0.99277257220E+01  0.00000000000E+00 0. -1.
        -12    1    4    4    0    0 -0.17284663274E+02 -0.20801052540E+00 -0.14555690032E+03  0.14657971921E+03  0.00000000000E+00 0. -1.
<mgrwt>
<rscale>  0 0.12550104E+03</rscale>
<asrwt>0</asrwt>
<pdfrwt beam="1">  1       21 0.15083507E-02 0.12550104E+03</pdfrwt>
<pdfrwt beam="2">  1       21 0.61788212E-01 0.12550104E+03</pdfrwt>
<totfact> 0.46705254E+06</totfact>
</mgrwt>
</event>
<event>
 9    1  0.4458519E-002  0.1250004E+03  0.7818608E-02  0.1235069E+00
         21   -1    0    0  503  502  0.00000000000E+00  0.00000000000E+00  0.12826656391E+02  0.12826656391E+02  0.00000000000E+00 0. -1.
         21   -1    0    0  502  503 -0.00000000000E+00 -0.00000000000E+00 -0.30454370638E+03  0.30454370638E+03  0.00000000000E+00 0. -1.
         25    2    1    2    0    0  0.44408920985E-15  0.00000000000E+00 -0.29171704999E+03  0.31737036277E+03  0.12500043964E+03 0.  0.
    9000006    2    3    3    0    0 -0.62399409329E-01 -0.16391701850E+02 -0.13030145240E+03  0.14438570391E+03  0.60000593429E+02 0.  0.
    9000007    2    3    3    0    0  0.62399409329E-01  0.16391701850E+02 -0.16141559759E+03  0.17298465886E+03  0.60000043953E+02 0.  0.
          5    1    4    4  501    0  0.10350984742E+02  0.13298177738E+02 -0.96087776332E+02  0.97667472460E+02  0.47000000000E+01 0. -1.
         -5    1    4    4    0  501 -0.10413384151E+02 -0.29689879589E+02 -0.34213676069E+02  0.46718231448E+02  0.47000000000E+01 0. -1.
         12    1    5    5    0    0  0.40607174638E+01  0.53128607627E+01 -0.16106235317E+03  0.16120110894E+03  0.00000000000E+00 0. -1.
        -12    1    5    5    0    0 -0.39983180545E+01  0.11078841087E+02 -0.35324441737E+00  0.11783549920E+02  0.00000000000E+00 0. -1.
<mgrwt>
<rscale>  0 0.12500044E+03</rscale>
<asrwt>0</asrwt>
<pdfrwt beam="1">  1       21 0.19733318E-02 0.12500044E+03</pdfrwt>
<pdfrwt beam="2">  1       21 0.46852877E-01 0.12500044E+03</pdfrwt>
<totfact> 0.54041792E+06</totfact>
</mgrwt>
</event>
<event>
 9    1  0.4458519E-002  0.1250058E+03  0.7818608E-02  0.1235060E+00
         21   -1    0    0  503  502  0.00000000000E+00  0.00000000000E+00  0.15598170788E+04  0.15598170788E+04  0.00000000000E+00 0. -1.
         21   -1    0    0  502  503 -0.00000000000E+00 -0.00000000000E+00 -0.25045313019E+01  0.25045313019E+01  0.00000000000E+00 0. -1.
         25    2    1    2    0    0 -0.17763568394E-14 -0.17763568394E-14  0.15573125475E+04  0.15623216101E+04  0.12500577105E+03 0.  0.
    9000006    2    3    3    0    0  0.10426484261E+02  0.14064018386E+02  0.78411431779E+03  0.78660138216E+03  0.59999690546E+02 0.  0.
    9000007    2    3    3    0    0 -0.10426484261E+02 -0.14064018386E+02  0.77319822968E+03  0.77572022791E+03  0.59998845215E+02 0.  0.
          5    1    4    4  501    0  0.14895519744E+02  0.17537983129E+02  0.11148321394E+03  0.11393004148E+03  0.47000000000E+01 0. -1.
         -5    1    4    4    0  501 -0.44690354833E+01 -0.34739647433E+01  0.67263110384E+03  0.67267134068E+03  0.47000000000E+01 0. -1.
         12    1    5    5    0    0 -0.78792329403E+01 -0.32181016783E+02  0.24798510086E+03  0.25018854970E+03  0.00000000000E+00 0. -1.
        -12    1    5    5    0    0 -0.25472513207E+01  0.18116998398E+02  0.52521312882E+03  0.52553167821E+03  0.00000000000E+00 0. -1.
<mgrwt>
<rscale>  0 0.12500577E+03</rscale>
<asrwt>0</asrwt>
<pdfrwt beam="1">  1       21 0.23997108E+00 0.12500577E+03</pdfrwt>
<pdfrwt beam="2">  1       21 0.38531375E-03 0.12500577E+03</pdfrwt>
<totfact> 0.13091805E+06</totfact>
</mgrwt>
</event>
<event>
 9    1  0.4458519E-002  0.1250286E+03  0.7818608E-02  0.1235025E+00
         21   -1    0    0  503  502  0.00000000000E+00  0.00000000000E+00  0.14966837840E+03  0.14966837840E+03  0.00000000000E+00 0. -1.
         21   -1    0    0  502  503 -0.00000000000E+00 -0.00000000000E+00 -0.26111294884E+02  0.26111294884E+02  0.00000000000E+00 0. -1.
         25    2    1    2    0    0  0.00000000000E+00  0.00000000000E+00  0.12355708352E+03  0.17577967329E+03  0.12502855935E+03 0.  0.
    9000006    2    3    3    0    0 -0.55453434382E+01  0.15050091922E+02  0.51761996979E+02  0.80848958335E+02  0.59999946932E+02 0.  0.
    9000007    2    3    3    0    0  0.55453434382E+01 -0.15050091922E+02  0.71795086538E+02  0.94930714951E+02  0.60000417411E+02 0.  0.
          5    1    4    4  501    0 -0.96313204047E+01 -0.21094267414E+02  0.11243964861E+02  0.26196320281E+02  0.47000000000E+01 0. -1.
         -5    1    4    4    0  501  0.40859769665E+01  0.36144359335E+02  0.40518032118E+02  0.54652638054E+02  0.47000000000E+01 0. -1.
         12    1    5    5    0    0  0.32860973009E+01  0.22811362707E+02  0.36209190436E+02  0.42921581704E+02  0.00000000000E+00 0.  1.
        -12    1    5    5    0    0  0.22592461373E+01 -0.37861454628E+02  0.35585896103E+02  0.52009133247E+02  0.00000000000E+00 0.  1.
<mgrwt>
<rscale>  0 0.12502856E+03</rscale>
<asrwt>0</asrwt>
<pdfrwt beam="1">  1       21 0.23025904E-01 0.12502856E+03</pdfrwt>
<pdfrwt beam="2">  1       21 0.40171224E-02 0.12502856E+03</pdfrwt>
<totfact> 0.67590017E+06</totfact>
</mgrwt>
</event>
<event>
 9    1  0.4458519E-002  0.1250017E+03  0.7818608E-02  0.1235067E+00
         21   -1    0    0  503  502  0.00000000000E+00  0.00000000000E+00  0.83563858124E+01  0.83563858124E+01  0.00000000000E+00 0.  1.
         21   -1    0    0  502  503 -0.00000000000E+00 -0.00000000000E+00 -0.46746964340E+03  0.46746964340E+03  0.00000000000E+00 0.  1.
         25    2    1    2    0    0  0.00000000000E+00  0.35527136788E-14 -0.45911325759E+03  0.47582602921E+03  0.12500170712E+03 0.  0.
    9000006    2    3    3    0    0  0.25669600483E+01  0.64783745175E+00 -0.29541957804E+03  0.30146268445E+03  0.60000117075E+02 0.  0.
    9000007    2    3    3    0    0 -0.25669600483E+01 -0.64783745175E+00 -0.16369367955E+03  0.17436334476E+03  0.59999552463E+02 0.  0.
          5    1    4    4  501    0  0.12683401558E+02  0.10731379017E+02 -0.27764265644E+03  0.27817901762E+03  0.47000000000E+01 0.  1.
         -5    1    4    4    0  501 -0.10116441510E+02 -0.10083541566E+02 -0.17776921601E+02  0.23283666828E+02  0.47000000000E+01 0.  1.
         12    1    5    5    0    0 -0.11485013426E+02 -0.22350927959E+02 -0.13489710921E+03  0.13721770872E+03  0.00000000000E+00 0. -1.
        -12    1    5    5    0    0  0.89180533776E+01  0.21703090507E+02 -0.28796570339E+02  0.37145636041E+02  0.00000000000E+00 0. -1.
<mgrwt>
<rscale>  0 0.12500171E+03</rscale>
<asrwt>0</asrwt>
<pdfrwt beam="1">  1       21 0.12855974E-02 0.12500171E+03</pdfrwt>
<pdfrwt beam="2">  1       21 0.71918431E-01 0.12500171E+03</pdfrwt>
<totfact> 0.43384315E+06</totfact>
</mgrwt>
</event>
<event>
 9    1  0.4458519E-002  0.1249884E+03  0.7818608E-02  0.1235087E+00
         21   -1    0    0  503  502  0.00000000000E+00  0.00000000000E+00  0.10037307619E+03  0.10037307619E+03  0.00000000000E+00 0. -1.
         21   -1    0    0  502  503 -0.00000000000E+00 -0.00000000000E+00 -0.38910117193E+02  0.38910117193E+02  0.00000000000E+00 0. -1.
         25    2    1    2    0    0 -0.88817841970E-15 -0.35527136788E-14  0.61462958996E+02  0.13928319338E+03  0.12498844999E+03 0.  0.
    9000006    2    3    3    0    0 -0.12422627585E+01  0.13291627925E+02  0.43289529498E+02  0.75180926979E+02  0.59999815229E+02 0.  0.
    9000007    2    3    3    0    0  0.12422627585E+01 -0.13291627925E+02  0.18173429498E+02  0.64102266404E+02  0.60005136686E+02 0.  0.
          5    1    4    4  501    0 -0.50263480268E+01 -0.10339188258E+02 -0.10407959960E+02  0.16204277795E+02  0.47000000000E+01 0.  1.
         -5    1    4    4    0  501  0.37840852682E+01  0.23630816183E+02  0.53697489458E+02  0.58976649184E+02  0.47000000000E+01 0.  1.
         12    1    5    5    0    0 -0.13500885928E+02  0.16506050513E+02 -0.69536192767E+01  0.22429365694E+02  0.00000000000E+00 0.  1.
        -12    1    5    5    0    0  0.14743148687E+02 -0.29797678438E+02  0.25127048774E+02  0.41672900710E+02  0.00000000000E+00 0.  1.
<mgrwt>
<rscale>  0 0.12498845E+03</rscale>
<asrwt>0</asrwt>
<pdfrwt beam="1">  1       21 0.15442012E-01 0.12498845E+03</pdfrwt>
<pdfrwt beam="2">  1       21 0.59861719E-02 0.12498845E+03</pdfrwt>
<totfact> 0.72154255E+06</totfact>
</mgrwt>
</event>
<event>
 9    1  0.4458519E-002  0.1249945E+03  0.7818608E-02  0.1235078E+00
         21   -1    0    0  503  502  0.00000000000E+00  0.00000000000E+00  0.24579048930E+01  0.24579048930E+01  0.00000000000E+00 0. -1.
         21   -1    0    0  502  503 -0.00000000000E+00 -0.00000000000E+00 -0.15891193007E+04  0.15891193007E+04  0.00000000000E+00 0. -1.
         25    2    1    2    0    0 -0.26645352591E-14  0.00000000000E+00 -0.15866613958E+04  0.15915772056E+04  0.12499446555E+03 0.  0.
    9000006    2    3    3    0    0  0.76590105246E+01  0.84707332301E+01 -0.96192079887E+03  0.96385798736E+03  0.60001522790E+02 0.  0.
    9000007    2    3    3    0    0 -0.76590105246E+01 -0.84707332301E+01 -0.62474059696E+03  0.62771921826E+03  0.60001580922E+02 0.  0.
          5    1    4    4  501    0  0.86983259866E+01  0.17444179481E+02 -0.93266768415E+03  0.93288319704E+03  0.47000000000E+01 0. -1.
         -5    1    4    4    0  501 -0.10393154620E+01 -0.89734462504E+01 -0.29253114718E+02  0.30974790313E+02  0.47000000000E+01 0. -1.
         12    1    5    5    0    0 -0.97414775877E+01 -0.29567111708E+02 -0.51559777362E+03  0.51653671180E+03  0.00000000000E+00 0. -1.
        -12    1    5    5    0    0  0.20824670631E+01  0.21096378477E+02 -0.10914282335E+03  0.11118250646E+03  0.00000000000E+00 0. -1.
<mgrwt>
<rscale>  0 0.12499447E+03</rscale>
<asrwt>0</asrwt>
<pdfrwt beam="1">  1       21 0.37813723E-03 0.12499447E+03</pdfrwt>
<pdfrwt beam="2">  1       21 0.24448118E+00 0.12499447E+03</pdfrwt>
<totfact> 0.12690087E+06</totfact>
</mgrwt>
</event>
