<event>
 9    1  0.4541185E-002  0.1250050E+03  0.7818608E-02  0.1235061E+00
         21   -1    0    0  503  502  0.00000000000E+00  0.00000000000E+00  0.72546200973E+03  0.72546200973E+03  0.00000000000E+00 0. -1.
         21   -1    0    0  502  503 -0.00000000000E+00 -0.00000000000E+00 -0.53849320758E+01  0.53849320758E+01  0.00000000000E+00 0. -1.
         25    2    1    2    0    0  0.00000000000E+00  0.00000000000E+00  0.72007707765E+03  0.73084694181E+03  0.12500501823E+03 0.  0.
    9000006    2    3    3    0    0  0.10236556213E+02 -0.86216466861E+01  0.42605096992E+03  0.43046320130E+03  0.60000156873E+02 0.  0.
    9000007    2    3    3    0    0 -0.10236556213E+02  0.86216466861E+01  0.29402610773E+03  0.30038374051E+03  0.59999330489E+02 0.  0.
          5    1    4    4  501    0  0.26092126218E+01  0.11831616155E+02  0.36854646102E+03  0.36877551310E+03  0.47000000000E+01 0.  1.
         -5    1    4    4    0  501  0.76273435915E+01 -0.20453262841E+02  0.57504508899E+02  0.61687688195E+02  0.47000000000E+01 0.  1.
         12    1    5    5    0    0 -0.14406037429E+02  0.16658673230E+02  0.28936184769E+03  0.29019876673E+03  0.00000000000E+00 0. -1.
        -12    1    5    5    0    0  0.41694812158E+01 -0.80370265439E+01  0.46642600400E+01  0.10184973785E+02  0.00000000000E+00 0. -1.
<mgrwt>
<rscale>  0 0.12500502E+03</rscale>
<asrwt>0</asrwt>
<pdfrwt beam="1">  1       21 0.11160946E+00 0.12500502E+03</pdfrwt>
<pdfrwt beam="2">  1       21 0.82845166E-03 0.12500502E+03</pdfrwt>
<totfact> 0.31750321E+06</totfact>
</mgrwt>
</event>
<event>
 9    1  0.4541185E-002  0.1249985E+03  0.7818608E-02  0.1235072E+00
         21   -1    0    0  503  502  0.00000000000E+00  0.00000000000E+00  0.51991098755E+03  0.51991098755E+03  0.00000000000E+00 0.  1.
         21   -1    0    0  502  503 -0.00000000000E+00 -0.00000000000E+00 -0.75131307430E+01  0.75131307430E+01  0.00000000000E+00 0.  1.
         25    2    1    2    0    0  0.00000000000E+00  0.00000000000E+00  0.51239785681E+03  0.52742411829E+03  0.12499854758E+03 0.  0.
    9000006    2    3    3    0    0  0.90488391270E+01  0.60069670668E+00  0.19304876065E+03  0.20236106626E+03  0.59999456851E+02 0.  0.
    9000007    2    3    3    0    0 -0.90488391270E+01 -0.60069670668E+00  0.31934909616E+03  0.32506305204E+03  0.59999168795E+02 0.  0.
          5    1    4    4  501    0 -0.14762500729E+02 -0.17631177574E+02  0.13322189540E+03  0.13527362369E+03  0.47000000000E+01 0.  1.
         -5    1    4    4    0  501  0.23811339856E+02  0.18231874281E+02  0.59826865246E+02  0.67087442571E+02  0.47000000000E+01 0.  1.
         12    1    5    5    0    0 -0.25362082430E+02  0.18708340997E+02  0.11810299151E+03  0.12223564886E+03  0.00000000000E+00 0.  1.
        -12    1    5    5    0    0  0.16313243303E+02 -0.19309037704E+02  0.20124610465E+03  0.20282740318E+03  0.00000000000E+00 0.  1.
<mgrwt>
<rscale>  0 0.12499855E+03</rscale>
<asrwt>0</asrwt>
<pdfrwt beam="1">  1       21 0.79986277E-01 0.12499855E+03</pdfrwt>
<pdfrwt beam="2">  1       21 0.11558667E-02 0.12499855E+03</pdfrwt>
<totfact> 0.40596287E+06</totfact>
</mgrwt>
</event>
<event>
 9    1  0.4541185E-002  0.1250180E+03  0.7818608E-02  0.1235041E+00
         21   -1    0    0  503  502  0.00000000000E+00  0.00000000000E+00  0.52088927572E+01  0.52088927572E+01  0.00000000000E+00 0.  1.
         21   -1    0    0  502  503 -0.00000000000E+00 -0.00000000000E+00 -0.75013533640E+03  0.75013533640E+03  0.00000000000E+00 0.  1.
         25    2    1    2    0    0  0.00000000000E+00  0.00000000000E+00 -0.74492644364E+03  0.75534422916E+03  0.12501799104E+03 0.  0.
    9000006    2    3    3    0    0 -0.10059437131E+02  0.91553182859E+01 -0.43930100506E+03  0.44358793062E+03  0.59998891828E+02 0.  0.
    9000007    2    3    3    0    0  0.10059437131E+02 -0.91553182859E+01 -0.30562543859E+03  0.31175629854E+03  0.60000573645E+02 0.  0.
          5    1    4    4  501    0 -0.31803891694E+01  0.31324594001E+02 -0.34063660443E+03  0.34212093088E+03  0.47000000000E+01 0. -1.
         -5    1    4    4    0  501 -0.68790479614E+01 -0.22169275715E+02 -0.98664400624E+02  0.10146699974E+03  0.47000000000E+01 0. -1.
         12    1    5    5    0    0 -0.51048667074E+01 -0.30622503562E+02 -0.22023797388E+03  0.22241529292E+03  0.00000000000E+00 0.  1.
        -12    1    5    5    0    0  0.15164303838E+02  0.21467185276E+02 -0.85387464709E+02  0.89341005613E+02  0.00000000000E+00 0.  1.
<mgrwt>
<rscale>  0 0.12501799E+03</rscale>
<asrwt>0</asrwt>
<pdfrwt beam="1">  1       21 0.80136823E-03 0.12501799E+03</pdfrwt>
<pdfrwt beam="2">  1       21 0.11540542E+00 0.12501799E+03</pdfrwt>
<totfact> 0.30868025E+06</totfact>
</mgrwt>
</event>
<event>
 9    1  0.4541185E-002  0.1249965E+03  0.7818608E-02  0.1235075E+00
         21   -1    0    0  503  502  0.00000000000E+00  0.00000000000E+00  0.44628957835E+02  0.44628957835E+02  0.00000000000E+00 0.  1.
         21   -1    0    0  502  503 -0.00000000000E+00 -0.00000000000E+00 -0.87522362265E+02  0.87522362265E+02  0.00000000000E+00 0.  1.
         25    2    1    2    0    0 -0.17763568394E-14  0.00000000000E+00 -0.42893404430E+02  0.13215132010E+03  0.12499650899E+03 0.  0.
    9000006    2    3    3    0    0  0.13498597903E+02  0.27722384829E+01 -0.10046786954E+02  0.62374198773E+02  0.59997544057E+02 0.  0.
    9000007    2    3    3    0    0 -0.13498597903E+02 -0.27722384829E+01 -0.32846617476E+02  0.69777121328E+02  0.60000407745E+02 0.  0.
          5    1    4    4  501    0  0.24166438765E+02 -0.22609871479E+02 -0.79874814273E+01  0.34367323295E+02  0.47000000000E+01 0.  1.
         -5    1    4    4    0  501 -0.10667840862E+02  0.25382109962E+02 -0.20593055263E+01  0.28006875478E+02  0.47000000000E+01 0.  1.
         12    1    5    5    0    0 -0.78949523096E+01 -0.27837171500E+02 -0.33266941544E+02  0.44089996471E+02  0.00000000000E+00 0.  1.
        -12    1    5    5    0    0 -0.56036455936E+01  0.25064933017E+02  0.42032406777E+00  0.25687124857E+02  0.00000000000E+00 0.  1.
<mgrwt>
<rscale>  0 0.12499651E+03</rscale>
<asrwt>0</asrwt>
<pdfrwt beam="1">  1       21 0.68659936E-02 0.12499651E+03</pdfrwt>
<pdfrwt beam="2">  1       21 0.13464979E-01 0.12499651E+03</pdfrwt>
<totfact> 0.73082447E+06</totfact>
</mgrwt>
</event>
<event>
 9    1  0.4541185E-002  0.1249976E+03  0.7818608E-02  0.1235073E+00
         21   -1    0    0  503  502  0.00000000000E+00  0.00000000000E+00  0.26800123765E+02  0.26800123765E+02  0.00000000000E+00 0.  1.
         21   -1    0    0  502  503 -0.00000000000E+00 -0.00000000000E+00 -0.14574936975E+03  0.14574936975E+03  0.00000000000E+00 0.  1.
         25    2    1    2    0    0 -0.17763568394E-14  0.17763568394E-14 -0.11894924599E+03  0.17254949352E+03  0.12499761835E+03 0.  0.
    9000006    2    3    3    0    0 -0.40022439322E+01  0.12725945278E+02 -0.75107425242E+02  0.97051962605E+02  0.59999920662E+02 0.  0.
    9000007    2    3    3    0    0  0.40022439322E+01 -0.12725945278E+02 -0.43841820747E+02  0.75497530914E+02  0.59998369044E+02 0.  0.
          5    1    4    4  501    0 -0.20603774765E+02  0.26159318335E+02 -0.64517273549E+02  0.72755714941E+02  0.47000000000E+01 0.  1.
         -5    1    4    4    0  501  0.16601530833E+02 -0.13433373057E+02 -0.10590151693E+02  0.24296247665E+02  0.47000000000E+01 0.  1.
         12    1    5    5    0    0  0.58698259597E+00  0.11328637550E+02  0.10821799090E+02  0.15677815947E+02  0.00000000000E+00 0. -1.
        -12    1    5    5    0    0  0.34152613362E+01 -0.24054582828E+02 -0.54663619837E+02  0.59819714967E+02  0.00000000000E+00 0. -1.
<mgrwt>
<rscale>  0 0.12499762E+03</rscale>
<asrwt>0</asrwt>
<pdfrwt beam="1">  1       21 0.41230959E-02 0.12499762E+03</pdfrwt>
<pdfrwt beam="2">  1       21 0.22422980E-01 0.12499762E+03</pdfrwt>
<totfact> 0.68020797E+06</totfact>
</mgrwt>
</event>
<event>
 9    1  0.4541185E-002  0.1249975E+03  0.7818608E-02  0.1235073E+00
         21   -1    0    0  503  502  0.00000000000E+00  0.00000000000E+00  0.20561383141E+04  0.20561383141E+04  0.00000000000E+00 0. -1.
         21   -1    0    0  502  503 -0.00000000000E+00 -0.00000000000E+00 -0.18997227498E+01  0.18997227498E+01  0.00000000000E+00 0. -1.
         25    2    1    2    0    0  0.17763568394E-14  0.35527136788E-14  0.20542385913E+04  0.20580380368E+04  0.12499748369E+03 0.  0.
    9000006    2    3    3    0    0 -0.15638955963E+02 -0.45713749015E+01  0.11316387787E+04  0.11333454071E+04  0.60000100068E+02 0.  0.
    9000007    2    3    3    0    0  0.15638955963E+02  0.45713749015E+01  0.92259981265E+03  0.92469262972E+03  0.60004755907E+02 0.  0.
          5    1    4    4  501    0  0.11713304647E+00 -0.12812542461E+02  0.59353262630E+02  0.60902173601E+02  0.47000000000E+01 0. -1.
         -5    1    4    4    0  501 -0.15756089009E+02  0.82411675598E+01  0.10722855160E+04  0.10724432335E+04  0.47000000000E+01 0. -1.
         12    1    5    5    0    0  0.38320603694E+01  0.24790717834E+02  0.18175531401E+03  0.18347822363E+03  0.00000000000E+00 0.  1.
        -12    1    5    5    0    0  0.11806895594E+02 -0.20219342932E+02  0.74084449864E+03  0.74121440608E+03  0.00000000000E+00 0.  1.
<mgrwt>
<rscale>  0 0.12499748E+03</rscale>
<asrwt>0</asrwt>
<pdfrwt beam="1">  1       21 0.31632719E+00 0.12499748E+03</pdfrwt>
<pdfrwt beam="2">  1       21 0.29226668E-03 0.12499748E+03</pdfrwt>
<totfact> 0.73964077E+05</totfact>
</mgrwt>
</event>
<event>
 9    1  0.4541185E-002  0.1249992E+03  0.7818608E-02  0.1235071E+00
         21   -1    0    0  503  502  0.00000000000E+00  0.00000000000E+00  0.18525240507E+02  0.18525240507E+02  0.00000000000E+00 0. -1.
         21   -1    0    0  502  503 -0.00000000000E+00 -0.00000000000E+00 -0.21085832154E+03  0.21085832154E+03  0.00000000000E+00 0. -1.
         25    2    1    2    0    0  0.17763568394E-14  0.00000000000E+00 -0.19233308103E+03  0.22938356205E+03  0.12499921791E+03 0.  0.
    9000006    2    3    3    0    0 -0.46919395502E+01  0.16600190513E+02 -0.90817761160E+02  0.11020574903E+03  0.59998839612E+02 0.  0.
    9000007    2    3    3    0    0  0.46919395502E+01 -0.16600190513E+02 -0.10151531987E+03  0.11917781302E+03  0.60003419280E+02 0.  0.
          5    1    4    4  501    0  0.90131443979E+01  0.34337380287E+02 -0.35914779158E+02  0.50717391681E+02  0.47000000000E+01 0. -1.
         -5    1    4    4    0  501 -0.13705083948E+02 -0.17737189774E+02 -0.54902982002E+02  0.59488357347E+02  0.47000000000E+01 0. -1.
         12    1    5    5    0    0  0.24900257242E+02  0.38216025986E+01 -0.18284816128E+02  0.31128153784E+02  0.00000000000E+00 0. -1.
        -12    1    5    5    0    0 -0.20208317692E+02 -0.20421793112E+02 -0.83230503745E+02  0.88049659236E+02  0.00000000000E+00 0. -1.
<mgrwt>
<rscale>  0 0.12499922E+03</rscale>
<asrwt>0</asrwt>
<pdfrwt beam="1">  1       21 0.28500369E-02 0.12499922E+03</pdfrwt>
<pdfrwt beam="2">  1       21 0.32439743E-01 0.12499922E+03</pdfrwt>
<totfact> 0.61876600E+06</totfact>
</mgrwt>
</event>
<event>
 9    1  0.4541185E-002  0.1250016E+03  0.7818608E-02  0.1235067E+00
         21   -1    0    0  503  502  0.00000000000E+00  0.00000000000E+00  0.38105166440E+02  0.38105166440E+02  0.00000000000E+00 0. -1.
         21   -1    0    0  502  503 -0.00000000000E+00 -0.00000000000E+00 -0.10251500815E+03  0.10251500815E+03  0.00000000000E+00 0. -1.
         25    2    1    2    0    0  0.00000000000E+00  0.35527136788E-14 -0.64409841712E+02  0.14062017459E+03  0.12500162316E+03 0.  0.
    9000006    2    3    3    0    0 -0.36106457207E+01  0.13403250874E+02 -0.44193738617E+02  0.75800919025E+02  0.60000074129E+02 0.  0.
    9000007    2    3    3    0    0  0.36106457207E+01 -0.13403250874E+02 -0.20216103094E+02  0.64819255566E+02  0.60001343079E+02 0.  0.
          5    1    4    4  501    0  0.58328217065E+01  0.33040998892E+02 -0.41150364650E+02  0.53302644660E+02  0.47000000000E+01 0. -1.
         -5    1    4    4    0  501 -0.94434674271E+01 -0.19637748019E+02 -0.30433739667E+01  0.22498274365E+02  0.47000000000E+01 0. -1.
         12    1    5    5    0    0  0.13803334086E+02 -0.13034131471E+02 -0.39039129458E+02  0.43410531486E+02  0.00000000000E+00 0. -1.
        -12    1    5    5    0    0 -0.10192688365E+02 -0.36911940247E+00  0.18823026364E+02  0.21408724080E+02  0.00000000000E+00 0. -1.
<mgrwt>
<rscale>  0 0.12500162E+03</rscale>
<asrwt>0</asrwt>
<pdfrwt beam="1">  1       21 0.58623333E-02 0.12500162E+03</pdfrwt>
<pdfrwt beam="2">  1       21 0.15771540E-01 0.12500162E+03</pdfrwt>
<totfact> 0.71955473E+06</totfact>
</mgrwt>
</event>
<event>
 9    1  0.4541185E-002  0.1250006E+03  0.7818608E-02  0.1235068E+00
         21   -1    0    0  503  502  0.00000000000E+00  0.00000000000E+00  0.13073705990E+03  0.13073705990E+03  0.00000000000E+00 0.  1.
         21   -1    0    0  502  503 -0.00000000000E+00 -0.00000000000E+00 -0.29878980579E+02  0.29878980579E+02  0.00000000000E+00 0.  1.
         25    2    1    2    0    0  0.00000000000E+00  0.35527136788E-14  0.10085807932E+03  0.16061604048E+03  0.12500064118E+03 0.  0.
    9000006    2    3    3    0    0  0.82014906206E+01  0.77430809910E+01  0.33240399286E+02  0.69514886846E+02  0.60001463289E+02 0.  0.
    9000007    2    3    3    0    0 -0.82014906206E+01 -0.77430809910E+01  0.67617680034E+02  0.91101153632E+02  0.60000414901E+02 0.  0.
          5    1    4    4  501    0 -0.19610901992E+01 -0.17570450670E+02  0.37295174860E+02  0.41540181503E+02  0.47000000000E+01 0. -1.
         -5    1    4    4    0  501  0.10162580820E+02  0.25313531661E+02 -0.40547755735E+01  0.27974705343E+02  0.47000000000E+01 0. -1.
         12    1    5    5    0    0 -0.15971679145E+02 -0.24863681560E+02  0.65898636862E+02  0.72221378661E+02  0.00000000000E+00 0.  1.
        -12    1    5    5    0    0  0.77701885241E+01  0.17120600569E+02  0.17190431723E+01  0.18879774971E+02  0.00000000000E+00 0.  1.
<mgrwt>
<rscale>  0 0.12500064E+03</rscale>
<asrwt>0</asrwt>
<pdfrwt beam="1">  1       21 0.20113393E-01 0.12500064E+03</pdfrwt>
<pdfrwt beam="2">  1       21 0.45967663E-02 0.12500064E+03</pdfrwt>
<totfact> 0.69443169E+06</totfact>
</mgrwt>
</event>
<event>
 9    1  0.4541185E-002  0.1250032E+03  0.7818608E-02  0.1235064E+00
         21   -1    0    0  503  502  0.00000000000E+00  0.00000000000E+00  0.68399980269E+01  0.68399980269E+01  0.00000000000E+00 0. -1.
         21   -1    0    0  502  503 -0.00000000000E+00 -0.00000000000E+00 -0.57111903289E+03  0.57111903289E+03  0.00000000000E+00 0. -1.
         25    2    1    2    0    0 -0.88817841970E-15  0.17763568394E-14 -0.56427903486E+03  0.57795903092E+03  0.12500324889E+03 0.  0.
    9000006    2    3    3    0    0 -0.55133139600E+01 -0.48045508336E+01 -0.35567849190E+03  0.36077788329E+03  0.60000092779E+02 0.  0.
    9000007    2    3    3    0    0  0.55133139600E+01  0.48045508336E+01 -0.20860054297E+03  0.21718114763E+03  0.59999866827E+02 0.  0.
          5    1    4    4  501    0 -0.18780094821E+00 -0.16197999471E+02 -0.33875853388E+03  0.33917819024E+03  0.47000000000E+01 0. -1.
         -5    1    4    4    0  501 -0.53255130118E+01  0.11393448638E+02 -0.16919958019E+02  0.21599693055E+02  0.47000000000E+01 0. -1.
         12    1    5    5    0    0 -0.95907659080E+01  0.28050381296E+02 -0.73259181051E+02  0.79029831645E+02  0.00000000000E+00 0. -1.
        -12    1    5    5    0    0  0.15104079868E+02 -0.23245830462E+02 -0.13534136191E+03  0.13815131598E+03  0.00000000000E+00 0. -1.
<mgrwt>
<rscale>  0 0.12500325E+03</rscale>
<asrwt>0</asrwt>
<pdfrwt beam="1">  1       21 0.10523073E-02 0.12500325E+03</pdfrwt>
<pdfrwt beam="2">  1       21 0.87864476E-01 0.12500325E+03</pdfrwt>
<totfact> 0.38105681E+06</totfact>
</mgrwt>
</event>
<event>
 9    1  0.4541185E-002  0.1250004E+03  0.7818608E-02  0.1235069E+00
         21   -1    0    0  503  502  0.00000000000E+00  0.00000000000E+00  0.82310225705E+02  0.82310225705E+02  0.00000000000E+00 0.  1.
         21   -1    0    0  502  503 -0.00000000000E+00 -0.00000000000E+00 -0.47457989246E+02  0.47457989246E+02  0.00000000000E+00 0.  1.
         25    2    1    2    0    0  0.00000000000E+00 -0.26645352591E-14  0.34852236459E+02  0.12976821495E+03  0.12500044490E+03 0.  0.
    9000006    2    3    3    0    0 -0.11452640689E+02  0.35477876002E+01  0.30661146614E+02  0.68438658170E+02  0.59999952040E+02 0.  0.
    9000007    2    3    3    0    0  0.11452640689E+02 -0.35477876002E+01  0.41910898453E+01  0.61329556782E+02  0.59999996045E+02 0.  0.
          5    1    4    4  501    0 -0.11278970347E+02  0.45282626262E+01  0.48367460808E+02  0.50092131114E+02  0.47000000000E+01 0.  1.
         -5    1    4    4    0  501 -0.17367034218E+00 -0.98047502597E+00 -0.17706314194E+02  0.18346527056E+02  0.47000000000E+01 0.  1.
         12    1    5    5    0    0  0.14032845411E+02  0.25050859143E+02  0.12676476588E+02  0.31387248252E+02  0.00000000000E+00 0.  1.
        -12    1    5    5    0    0 -0.25802047214E+01 -0.28598646743E+02 -0.84853867429E+01  0.29942308531E+02  0.00000000000E+00 0.  1.
<mgrwt>
<rscale>  0 0.12500044E+03</rscale>
<asrwt>0</asrwt>
<pdfrwt beam="1">  1       21 0.12663112E-01 0.12500044E+03</pdfrwt>
<pdfrwt beam="2">  1       21 0.73012291E-02 0.12500044E+03</pdfrwt>
<totfact> 0.73395075E+06</totfact>
</mgrwt>
</event>
<event>
 9    1  0.4541185E-002  0.1250023E+03  0.7818608E-02  0.1235066E+00
         21   -1    0    0  503  502  0.00000000000E+00  0.00000000000E+00  0.22364668005E+02  0.22364668005E+02  0.00000000000E+00 0.  1.
         21   -1    0    0  502  503 -0.00000000000E+00 -0.00000000000E+00 -0.17466809524E+03  0.17466809524E+03  0.00000000000E+00 0.  1.
         25    2    1    2    0    0 -0.88817841970E-15  0.00000000000E+00 -0.15230342723E+03  0.19703276324E+03  0.12500230336E+03 0.  0.
    9000006    2    3    3    0    0  0.98197071097E+00 -0.10083577289E+02 -0.53649755162E+02  0.81122426271E+02  0.59999241809E+02 0.  0.
    9000007    2    3    3    0    0 -0.98197071097E+00  0.10083577289E+02 -0.98653672072E+02  0.11591033697E+03  0.60000136722E+02 0.  0.
          5    1    4    4  501    0  0.10015402767E+02  0.23166779836E+02 -0.18242155611E+02  0.31494034703E+02  0.47000000000E+01 0. -1.
         -5    1    4    4    0  501 -0.90334320556E+01 -0.33250357125E+02 -0.35407599551E+02  0.49628391568E+02  0.47000000000E+01 0. -1.
         12    1    5    5    0    0 -0.43778865711E-01  0.34745944263E+02 -0.69585546847E+02  0.77778087462E+02  0.00000000000E+00 0.  1.
        -12    1    5    5    0    0 -0.93819184526E+00 -0.24662366974E+02 -0.29068125225E+02  0.38132249511E+02  0.00000000000E+00 0.  1.
<mgrwt>
<rscale>  0 0.12500230E+03</rscale>
<asrwt>0</asrwt>
<pdfrwt beam="1">  1       21 0.34407181E-02 0.12500230E+03</pdfrwt>
<pdfrwt beam="2">  1       21 0.26872015E-01 0.12500230E+03</pdfrwt>
<totfact> 0.65245420E+06</totfact>
</mgrwt>
</event>
<event>
 9    1  0.4541185E-002  0.1249998E+03  0.7818608E-02  0.1235070E+00
         21   -1    0    0  503  502  0.00000000000E+00  0.00000000000E+00  0.24225874492E+01  0.24225874492E+01  0.00000000000E+00 0.  1.
         21   -1    0    0  502  503 -0.00000000000E+00 -0.00000000000E+00 -0.16124229708E+04  0.16124229708E+04  0.00000000000E+00 0.  1.
         25    2    1    2    0    0 -0.17763568394E-14  0.00000000000E+00 -0.16100003834E+04  0.16148455583E+04  0.12499977043E+03 0.  0.
    9000006    2    3    3    0    0 -0.83857055354E+01 -0.12526366306E+02 -0.69008111450E+03  0.69284842908E+03  0.59998093119E+02 0.  0.
    9000007    2    3    3    0    0  0.83857055354E+01  0.12526366306E+02 -0.91991926886E+03  0.92199712918E+03  0.60000125705E+02 0.  0.
          5    1    4    4  501    0 -0.72248174560E+01  0.20314744878E+02 -0.13644565730E+03  0.13821864651E+03  0.47000000000E+01 0.  1.
         -5    1    4    4    0  501 -0.11608880794E+01 -0.32841111184E+02 -0.55363545720E+03  0.55462978257E+03  0.47000000000E+01 0.  1.
         12    1    5    5    0    0  0.97584038687E+01  0.35138043576E+02 -0.69044895294E+03  0.69141135742E+03  0.00000000000E+00 0.  1.
        -12    1    5    5    0    0 -0.13726983332E+01 -0.22611677270E+02 -0.22947031592E+03  0.23058577176E+03  0.00000000000E+00 0.  1.
<mgrwt>
<rscale>  0 0.12499977E+03</rscale>
<asrwt>0</asrwt>
<pdfrwt beam="1">  1       21 0.37270770E-03 0.12499977E+03</pdfrwt>
<pdfrwt beam="2">  1       21 0.24806378E+00 0.12499977E+03</pdfrwt>
<totfact> 0.12373428E+06</totfact>
</mgrwt>
</event>
<event>
 9    1  0.4541185E-002  0.1249995E+03  0.7818608E-02  0.1235070E+00
         21   -1    0    0  503  502  0.00000000000E+00  0.00000000000E+00  0.27384212096E+02  0.27384212096E+02  0.00000000000E+00 0. -1.
         21   -1    0    0  502  503 -0.00000000000E+00 -0.00000000000E+00 -0.14264491720E+03  0.14264491720E+03  0.00000000000E+00 0. -1.
         25    2    1    2    0    0 -0.88817841970E-15 -0.17763568394E-14 -0.11526070511E+03  0.17002912930E+03  0.12499949867E+03 0.  0.
    9000006    2    3    3    0    0 -0.31693310978E+01  0.94813760758E+01 -0.77144469147E+02  0.98240953570E+02  0.60000622383E+02 0.  0.
    9000007    2    3    3    0    0  0.31693310978E+01 -0.94813760758E+01 -0.38116235958E+02  0.71788175728E+02  0.60006279494E+02 0.  0.
          5    1    4    4  501    0  0.15804254337E+01  0.13630043321E+02 -0.85525912927E+02  0.86747032269E+02  0.47000000000E+01 0.  1.
         -5    1    4    4    0  501 -0.47497565315E+01 -0.41486672452E+01  0.83814437801E+01  0.11493921300E+02  0.47000000000E+01 0.  1.
         12    1    5    5    0    0  0.19526588130E+02 -0.20449008215E+02  0.67659063301E+00  0.28282633468E+02  0.00000000000E+00 0. -1.
        -12    1    5    5    0    0 -0.16357257032E+02  0.10967632139E+02 -0.38792826591E+02  0.43505542260E+02  0.00000000000E+00 0. -1.
<mgrwt>
<rscale>  0 0.12499950E+03</rscale>
<asrwt>0</asrwt>
<pdfrwt beam="1">  1       21 0.42129557E-02 0.12499950E+03</pdfrwt>
<pdfrwt beam="2">  1       21 0.21945372E-01 0.12499950E+03</pdfrwt>
<totfact> 0.68315052E+06</totfact>
</mgrwt>
</event>
<event>
 9    1  0.4541185E-002  0.1250035E+03  0.7818608E-02  0.1235064E+00
         21   -1    0    0  503  502  0.00000000000E+00  0.00000000000E+00  0.18477024859E+02  0.18477024859E+02  0.00000000000E+00 0. -1.
         21   -1    0    0  502  503 -0.00000000000E+00 -0.00000000000E+00 -0.21142303450E+03  0.21142303450E+03  0.00000000000E+00 0. -1.
         25    2    1    2    0    0  0.00000000000E+00  0.00000000000E+00 -0.19294600964E+03  0.22990005935E+03  0.12500349858E+03 0.  0.
    9000006    2    3    3    0    0 -0.12115201550E+02 -0.92216249951E+01 -0.11236665693E+03  0.12828918098E+03  0.60000265751E+02 0.  0.
    9000007    2    3    3    0    0  0.12115201550E+02  0.92216249951E+01 -0.80579352704E+02  0.10161087837E+03  0.59999350377E+02 0.  0.
          5    1    4    4  501    0 -0.13748007775E+02 -0.38999285578E+01 -0.11807770947E+03  0.11903214958E+03  0.47000000000E+01 0. -1.
         -5    1    4    4    0  501  0.16328062247E+01 -0.53216964372E+01  0.57110525399E+01  0.92570313951E+01  0.47000000000E+01 0. -1.
         12    1    5    5    0    0  0.13325549018E+02 -0.21393193631E+02 -0.15262274419E+02  0.29464826672E+02  0.00000000000E+00 0.  1.
        -12    1    5    5    0    0 -0.12103474678E+01  0.30614818626E+02 -0.65317078285E+02  0.72146051702E+02  0.00000000000E+00 0.  1.
<mgrwt>
<rscale>  0 0.12500350E+03</rscale>
<asrwt>0</asrwt>
<pdfrwt beam="1">  1       21 0.28426193E-02 0.12500350E+03</pdfrwt>
<pdfrwt beam="2">  1       21 0.32526620E-01 0.12500350E+03</pdfrwt>
<totfact> 0.61818467E+06</totfact>
</mgrwt>
</event>
<event>
 9    1  0.4541185E-002  0.1249701E+03  0.7818608E-02  0.1235116E+00
         21   -1    0    0  503  502  0.00000000000E+00  0.00000000000E+00  0.29192625684E+03  0.29192625684E+03  0.00000000000E+00 0.  1.
         21   -1    0    0  502  503 -0.00000000000E+00 -0.00000000000E+00 -0.13374541045E+02  0.13374541045E+02  0.00000000000E+00 0.  1.
         25    2    1    2    0    0 -0.35527136788E-14  0.00000000000E+00  0.27855171579E+03  0.30530079788E+03  0.12497007168E+03 0.  0.
    9000006    2    3    3    0    0  0.12770798367E+02  0.45146803577E+01  0.11241058296E+03  0.12813891795E+03  0.59999729179E+02 0.  0.
    9000007    2    3    3    0    0 -0.12770798367E+02 -0.45146803577E+01  0.16614113284E+03  0.17716187994E+03  0.59999833778E+02 0.  0.
          5    1    4    4  501    0 -0.22549145061E+02  0.10504881267E+02  0.49170037939E+02  0.55304602922E+02  0.47000000000E+01 0. -1.
         -5    1    4    4    0  501  0.35319943428E+02 -0.59902009088E+01  0.63240545019E+02  0.72834315024E+02  0.47000000000E+01 0. -1.
         12    1    5    5    0    0  0.17206167701E+02 -0.70991117453E+01  0.17642740390E+02  0.25645972062E+02  0.00000000000E+00 0. -1.
        -12    1    5    5    0    0 -0.29976966068E+02  0.25844313876E+01  0.14849839245E+03  0.15151590788E+03  0.00000000000E+00 0. -1.
<mgrwt>
<rscale>  0 0.12497007E+03</rscale>
<asrwt>0</asrwt>
<pdfrwt beam="1">  1       21 0.44911727E-01 0.12497007E+03</pdfrwt>
<pdfrwt beam="2">  1       21 0.20576219E-02 0.12497007E+03</pdfrwt>
<totfact> 0.55059895E+06</totfact>
</mgrwt>
</event>
<event>
 9    1  0.4541185E-002  0.1250018E+03  0.7818608E-02  0.1235066E+00
         21   -1    0    0  503  502  0.00000000000E+00  0.00000000000E+00  0.45217114777E+01  0.45217114777E+01  0.00000000000E+00 0.  1.
         21   -1    0    0  502  503 -0.00000000000E+00 -0.00000000000E+00 -0.86391284438E+03  0.86391284438E+03  0.00000000000E+00 0.  1.
         25    2    1    2    0    0 -0.22204460493E-15  0.35527136788E-14 -0.85939113290E+03  0.86843455586E+03  0.12500183397E+03 0.  0.
    9000006    2    3    3    0    0  0.18368704371E+01  0.17220065882E+02 -0.41216952538E+03  0.41687387628E+03  0.60001719237E+02 0.  0.
    9000007    2    3    3    0    0 -0.18368704371E+01 -0.17220065882E+02 -0.44722160752E+03  0.45156067958E+03  0.59999802858E+02 0.  0.
          5    1    4    4  501    0  0.26361611223E+01  0.19565229698E+02 -0.41796322962E+02  0.46462567425E+02  0.47000000000E+01 0.  1.
         -5    1    4    4    0  501 -0.79929068519E+00 -0.23451638160E+01 -0.37037320241E+03  0.37041130885E+03  0.47000000000E+01 0.  1.
         12    1    5    5    0    0  0.34887144905E+01 -0.39309842147E+02 -0.30321002281E+03  0.30576748151E+03  0.00000000000E+00 0. -1.
        -12    1    5    5    0    0 -0.53255849276E+01  0.22089776266E+02 -0.14401158471E+03  0.14579319806E+03  0.00000000000E+00 0. -1.
<mgrwt>
<rscale>  0 0.12500183E+03</rscale>
<asrwt>0</asrwt>
<pdfrwt beam="1">  1       21 0.69564802E-03 0.12500183E+03</pdfrwt>
<pdfrwt beam="2">  1       21 0.13290965E+00 0.12500183E+03</pdfrwt>
<totfact> 0.27215490E+06</totfact>
</mgrwt>
</event>
<event>
 9    1  0.4541185E-002  0.1250011E+03  0.7818608E-02  0.1235067E+00
         21   -1    0    0  503  502  0.00000000000E+00  0.00000000000E+00  0.23968198553E+02  0.23968198553E+02  0.00000000000E+00 0. -1.
         21   -1    0    0  502  503 -0.00000000000E+00 -0.00000000000E+00 -0.16297936493E+03  0.16297936493E+03  0.00000000000E+00 0. -1.
         25    2    1    2    0    0 -0.88817841970E-15  0.17763568394E-14 -0.13901116637E+03  0.18694756348E+03  0.12500114845E+03 0.  0.
    9000006    2    3    3    0    0 -0.59959694486E+01  0.10875865158E+01 -0.44967399246E+02  0.75227371301E+02  0.59999632531E+02 0.  0.
    9000007    2    3    3    0    0  0.59959694486E+01 -0.10875865158E+01 -0.94043767129E+02  0.11172019218E+03  0.60000305922E+02 0.  0.
          5    1    4    4  501    0  0.56772308954E+01 -0.20656395629E+02  0.19383495747E+01  0.22017375640E+02  0.47000000000E+01 0. -1.
         -5    1    4    4    0  501 -0.11673200344E+02  0.21743982145E+02 -0.46905748821E+02  0.53209995661E+02  0.47000000000E+01 0. -1.
         12    1    5    5    0    0  0.13535090255E+02  0.10242612533E+02 -0.96422083787E+02  0.97904688456E+02  0.00000000000E+00 0.  1.
        -12    1    5    5    0    0 -0.75391208061E+01 -0.11330199049E+02  0.23783166583E+01  0.13815503724E+02  0.00000000000E+00 0.  1.
<mgrwt>
<rscale>  0 0.12500115E+03</rscale>
<asrwt>0</asrwt>
<pdfrwt beam="1">  1       21 0.36874151E-02 0.12500115E+03</pdfrwt>
<pdfrwt beam="2">  1       21 0.25073749E-01 0.12500115E+03</pdfrwt>
<totfact> 0.66361399E+06</totfact>
</mgrwt>
</event>
<event>
 9    1  0.4541185E-002  0.1250034E+03  0.7818608E-02  0.1235064E+00
         21   -1    0    0  503  502  0.00000000000E+00  0.00000000000E+00  0.10471034006E+03  0.10471034006E+03  0.00000000000E+00 0.  1.
         21   -1    0    0  502  503 -0.00000000000E+00 -0.00000000000E+00 -0.37307304931E+02  0.37307304931E+02  0.00000000000E+00 0.  1.
         25    2    1    2    0    0  0.88817841970E-15  0.00000000000E+00  0.67403035126E+02  0.14201764499E+03  0.12500336933E+03 0.  0.
    9000006    2    3    3    0    0  0.55040563973E+01  0.16335704853E+02  0.37173206561E+02  0.72656606226E+02  0.59999877103E+02 0.  0.
    9000007    2    3    3    0    0 -0.55040563973E+01 -0.16335704853E+02  0.30229828565E+02  0.69361038763E+02  0.59999677277E+02 0.  0.
          5    1    4    4  501    0  0.28443152306E+02  0.22241231350E+02  0.30774578989E+02  0.47674416588E+02  0.47000000000E+01 0. -1.
         -5    1    4    4    0  501 -0.22939095908E+02 -0.59055264971E+01  0.63986275715E+01  0.24982189638E+02  0.47000000000E+01 0. -1.
         12    1    5    5    0    0 -0.10804257220E+02 -0.43476128336E+00  0.45451292206E+02  0.46719813299E+02  0.00000000000E+00 0.  1.
        -12    1    5    5    0    0  0.53002008223E+01 -0.15900943569E+02 -0.15221463641E+02  0.22641225464E+02  0.00000000000E+00 0.  1.
<mgrwt>
<rscale>  0 0.12500337E+03</rscale>
<asrwt>0</asrwt>
<pdfrwt beam="1">  1       21 0.16109283E-01 0.12500337E+03</pdfrwt>
<pdfrwt beam="2">  1       21 0.57395854E-02 0.12500337E+03</pdfrwt>
<totfact> 0.71770832E+06</totfact>
</mgrwt>
</event>
<event>
 9    1  0.4541185E-002  0.1249987E+03  0.7818608E-02  0.1235071E+00
         21   -1    0    0  503  502  0.00000000000E+00  0.00000000000E+00  0.10469034149E+03  0.10469034149E+03  0.00000000000E+00 0. -1.
         21   -1    0    0  502  503 -0.00000000000E+00 -0.00000000000E+00 -0.37311649971E+02  0.37311649971E+02  0.00000000000E+00 0. -1.
         25    2    1    2    0    0  0.88817841970E-15  0.53290705182E-14  0.67378691519E+02  0.14200199146E+03  0.12499871003E+03 0.  0.
    9000006    2    3    3    0    0 -0.58930329045E+01 -0.15826544275E+02  0.28484256426E+02  0.68531433229E+02  0.59999976131E+02 0.  0.
    9000007    2    3    3    0    0  0.58930329045E+01  0.15826544275E+02  0.38894435094E+02  0.73470558232E+02  0.59999487541E+02 0.  0.
          5    1    4    4  501    0  0.17176301340E+01  0.18845030593E+02  0.26190141228E+02  0.32651170406E+02  0.47000000000E+01 0.  1.
         -5    1    4    4    0  501 -0.76106630385E+01 -0.34671574868E+02  0.22941151979E+01  0.35880262823E+02  0.47000000000E+01 0.  1.
         12    1    5    5    0    0 -0.19318147769E+02  0.67631746316E+01 -0.58776352646E+01  0.21295021968E+02  0.00000000000E+00 0.  1.
        -12    1    5    5    0    0  0.25211180674E+02  0.90633696436E+01  0.44772070358E+02  0.52175536264E+02  0.00000000000E+00 0.  1.
<mgrwt>
<rscale>  0 0.12499871E+03</rscale>
<asrwt>0</asrwt>
<pdfrwt beam="1">  1       21 0.16106206E-01 0.12499871E+03</pdfrwt>
<pdfrwt beam="2">  1       21 0.57402539E-02 0.12499871E+03</pdfrwt>
<totfact> 0.71781377E+06</totfact>
</mgrwt>
</event>
<event>
 9    1  0.4541185E-002  0.1249993E+03  0.7818608E-02  0.1235070E+00
         21   -1    0    0  503  502  0.00000000000E+00  0.00000000000E+00  0.65011683803E+02  0.65011683803E+02  0.00000000000E+00 0.  1.
         21   -1    0    0  502  503 -0.00000000000E+00 -0.00000000000E+00 -0.60084698562E+02  0.60084698562E+02  0.00000000000E+00 0.  1.
         25    2    1    2    0    0  0.00000000000E+00  0.00000000000E+00  0.49269852416E+01  0.12509638236E+03  0.12499931879E+03 0.  0.
    9000006    2    3    3    0    0  0.87134464011E+01  0.11720862861E+02  0.12134340626E+02  0.62925346371E+02  0.59992117975E+02 0.  0.
    9000007    2    3    3    0    0 -0.87134464011E+01 -0.11720862861E+02 -0.72073553839E+01  0.62171035994E+02  0.59999908088E+02 0.  0.
          5    1    4    4  501    0 -0.62454841465E+01  0.26830269211E+02  0.25116593355E+02  0.37573962793E+02  0.47000000000E+01 0. -1.
         -5    1    4    4    0  501  0.14958930548E+02 -0.15109406350E+02 -0.12982252730E+02  0.25351383578E+02  0.47000000000E+01 0. -1.
         12    1    5    5    0    0  0.18205487910E+02  0.93354361435E+01 -0.17020984121E+02  0.26613982387E+02  0.00000000000E+00 0. -1.
        -12    1    5    5    0    0 -0.26918934312E+02 -0.21056299004E+02  0.98136287369E+01  0.35557053607E+02  0.00000000000E+00 0. -1.
<mgrwt>
<rscale>  0 0.12499932E+03</rscale>
<asrwt>0</asrwt>
<pdfrwt beam="1">  1       21 0.10001797E-01 0.12499932E+03</pdfrwt>
<pdfrwt beam="2">  1       21 0.92437998E-02 0.12499932E+03</pdfrwt>
<totfact> 0.74031853E+06</totfact>
</mgrwt>
</event>
<event>
 9    1  0.4541185E-002  0.1250023E+03  0.7818608E-02  0.1235066E+00
         21   -1    0    0  503  502  0.00000000000E+00  0.00000000000E+00  0.15221848623E+03  0.15221848623E+03  0.00000000000E+00 0. -1.
         21   -1    0    0  502  503 -0.00000000000E+00 -0.00000000000E+00 -0.25663064075E+02  0.25663064075E+02  0.00000000000E+00 0. -1.
         25    2    1    2    0    0  0.17763568394E-14  0.17763568394E-14  0.12655542216E+03  0.17788155031E+03  0.12500228423E+03 0.  0.
    9000006    2    3    3    0    0  0.13184829774E+02  0.25581324585E+01  0.79250476050E+02  0.10030483312E+03  0.60000315132E+02 0.  0.
    9000007    2    3    3    0    0 -0.13184829774E+02 -0.25581324585E+01  0.47304946107E+02  0.77576717185E+02  0.60000044543E+02 0.  0.
          5    1    4    4  501    0  0.27917891086E+02 -0.12671129638E+02  0.70279107025E+02  0.76819327341E+02  0.47000000000E+01 0. -1.
         -5    1    4    4    0  501 -0.14733061313E+02  0.15229262096E+02  0.89713690256E+01  0.23485505782E+02  0.47000000000E+01 0. -1.
         12    1    5    5    0    0  0.93798071236E+01  0.24501144344E+02  0.19300360052E+02  0.32569782836E+02  0.00000000000E+00 0. -1.
        -12    1    5    5    0    0 -0.22564636897E+02 -0.27059276802E+02  0.28004586056E+02  0.45006934349E+02  0.00000000000E+00 0. -1.
<mgrwt>
<rscale>  0 0.12500228E+03</rscale>
<asrwt>0</asrwt>
<pdfrwt beam="1">  1       21 0.23418228E-01 0.12500228E+03</pdfrwt>
<pdfrwt beam="2">  1       21 0.39481638E-02 0.12500228E+03</pdfrwt>
<totfact> 0.67391488E+06</totfact>
</mgrwt>
</event>
<event>
 9    1  0.4541185E-002  0.1250150E+03  0.7818608E-02  0.1235046E+00
         21   -1    0    0  503  502  0.00000000000E+00  0.00000000000E+00  0.21399483872E+03  0.21399483872E+03  0.00000000000E+00 0. -1.
         21   -1    0    0  502  503 -0.00000000000E+00 -0.00000000000E+00 -0.18258319550E+02  0.18258319550E+02  0.00000000000E+00 0. -1.
         25    2    1    2    0    0  0.35527136788E-14  0.00000000000E+00  0.19573651917E+03  0.23225315826E+03  0.12501497746E+03 0.  0.
    9000006    2    3    3    0    0 -0.13778305535E+02  0.31713182385E+01  0.11711796830E+03  0.13234998453E+03  0.60000007852E+02 0.  0.
    9000007    2    3    3    0    0  0.13778305535E+02 -0.31713182385E+01  0.78618550860E+02  0.99903173736E+02  0.59998905159E+02 0.  0.
          5    1    4    4  501    0  0.56294604015E+01  0.28464512239E+02  0.57698005124E+02  0.64753911671E+02  0.47000000000E+01 0.  1.
         -5    1    4    4    0  501 -0.19407765936E+02 -0.25293194001E+02  0.59419963181E+02  0.67596072858E+02  0.47000000000E+01 0.  1.
         12    1    5    5    0    0 -0.19076614319E+02  0.62728239791E+01  0.54456041747E+02  0.58040727230E+02  0.00000000000E+00 0. -1.
        -12    1    5    5    0    0  0.32854919854E+02 -0.94441422176E+01  0.24162509113E+02  0.41862446506E+02  0.00000000000E+00 0. -1.
<mgrwt>
<rscale>  0 0.12501498E+03</rscale>
<asrwt>0</asrwt>
<pdfrwt beam="1">  1       21 0.32922281E-01 0.12501498E+03</pdfrwt>
<pdfrwt beam="2">  1       21 0.28089724E-02 0.12501498E+03</pdfrwt>
<totfact> 0.61567186E+06</totfact>
</mgrwt>
</event>
<event>
 9    1  0.4541185E-002  0.1250003E+03  0.7818608E-02  0.1235069E+00
         21   -1    0    0  503  502  0.00000000000E+00  0.00000000000E+00  0.11668672645E+03  0.11668672645E+03  0.00000000000E+00 0. -1.
         21   -1    0    0  502  503 -0.00000000000E+00 -0.00000000000E+00 -0.33476538762E+02  0.33476538762E+02  0.00000000000E+00 0. -1.
         25    2    1    2    0    0  0.00000000000E+00  0.00000000000E+00  0.83210187693E+02  0.15016326522E+03  0.12500028354E+03 0.  0.
    9000006    2    3    3    0    0  0.16463556628E+02  0.17168139007E+01  0.48430735720E+02  0.78863933645E+02  0.59999897673E+02 0.  0.
    9000007    2    3    3    0    0 -0.16463556628E+02 -0.17168139007E+01  0.34779451973E+02  0.71299331571E+02  0.59999902134E+02 0.  0.
          5    1    4    4  501    0  0.14534905368E+02  0.17052968550E+02  0.56385326659E+02  0.60856078356E+02  0.47000000000E+01 0.  1.
         -5    1    4    4    0  501  0.19286512597E+01 -0.15336154649E+02 -0.79545909394E+01  0.18007855289E+02  0.47000000000E+01 0.  1.
         12    1    5    5    0    0 -0.54932089663E+01 -0.27955886221E+02  0.29932920556E+01  0.28647281136E+02  0.00000000000E+00 0. -1.
        -12    1    5    5    0    0 -0.10970347662E+02  0.26239072320E+02  0.31786159918E+02  0.42652050436E+02  0.00000000000E+00 0. -1.
<mgrwt>
<rscale>  0 0.12500028E+03</rscale>
<asrwt>0</asrwt>
<pdfrwt beam="1">  1       21 0.17951804E-01 0.12500028E+03</pdfrwt>
<pdfrwt beam="2">  1       21 0.51502368E-02 0.12500028E+03</pdfrwt>
<totfact> 0.70738188E+06</totfact>
</mgrwt>
</event>
<event>
 9    1  0.4541185E-002  0.1250162E+03  0.7818608E-02  0.1235044E+00
         21   -1    0    0  503  502  0.00000000000E+00  0.00000000000E+00  0.41335370686E+02  0.41335370686E+02  0.00000000000E+00 0.  1.
         21   -1    0    0  502  503 -0.00000000000E+00 -0.00000000000E+00 -0.94525914299E+02  0.94525914299E+02  0.00000000000E+00 0.  1.
         25    2    1    2    0    0  0.00000000000E+00  0.88817841970E-15 -0.53190543613E+02  0.13586128498E+03  0.12501621826E+03 0.  0.
    9000006    2    3    3    0    0  0.65099574523E+01  0.34957516945E+01 -0.43875516722E+02  0.74697516726E+02  0.60000485093E+02 0.  0.
    9000007    2    3    3    0    0 -0.65099574523E+01 -0.34957516945E+01 -0.93150268909E+01  0.61163768259E+02  0.59996974888E+02 0.  0.
          5    1    4    4  501    0  0.31061415362E+02  0.68314297480E+01 -0.12621988207E+02  0.34538160678E+02  0.47000000000E+01 0. -1.
         -5    1    4    4    0  501 -0.24551457910E+02 -0.33356780535E+01 -0.31253528515E+02  0.40159356048E+02  0.47000000000E+01 0. -1.
         12    1    5    5    0    0 -0.31771676768E+01  0.16358944445E+02  0.19728462907E+02  0.25824827328E+02  0.00000000000E+00 0. -1.
        -12    1    5    5    0    0 -0.33327897756E+01 -0.19854696140E+02 -0.29043489798E+02  0.35338940931E+02  0.00000000000E+00 0. -1.
<mgrwt>
<rscale>  0 0.12501622E+03</rscale>
<asrwt>0</asrwt>
<pdfrwt beam="1">  1       21 0.63592877E-02 0.12501622E+03</pdfrwt>
<pdfrwt beam="2">  1       21 0.14542448E-01 0.12501622E+03</pdfrwt>
<totfact> 0.72552618E+06</totfact>
</mgrwt>
</event>
<event>
 9    1  0.4541185E-002  0.1249974E+03  0.7818608E-02  0.1235073E+00
         21   -1    0    0  503  502  0.00000000000E+00  0.00000000000E+00  0.15151358137E+02  0.15151358137E+02  0.00000000000E+00 0. -1.
         21   -1    0    0  502  503 -0.00000000000E+00 -0.00000000000E+00 -0.25780433376E+03  0.25780433376E+03  0.00000000000E+00 0. -1.
         25    2    1    2    0    0  0.00000000000E+00  0.00000000000E+00 -0.24265297563E+03  0.27295569190E+03  0.12499737262E+03 0.  0.
    9000006    2    3    3    0    0  0.51310845778E+01  0.11062722392E+02 -0.93935511131E+02  0.11212747488E+03  0.59999820965E+02 0.  0.
    9000007    2    3    3    0    0 -0.51310845778E+01 -0.11062722392E+02 -0.14871746450E+03  0.16082821702E+03  0.60000994063E+02 0.  0.
          5    1    4    4  501    0  0.14975619659E+02 -0.21269021647E+02 -0.49342952524E+02  0.55977293877E+02  0.47000000000E+01 0. -1.
         -5    1    4    4    0  501 -0.98445350810E+01  0.32331744039E+02 -0.44592558606E+02  0.56150181002E+02  0.47000000000E+01 0. -1.
         12    1    5    5    0    0  0.63123742615E+01 -0.20890408217E+02 -0.14306457963E+03  0.14471948442E+03  0.00000000000E+00 0. -1.
        -12    1    5    5    0    0 -0.11443458839E+02  0.98276858247E+01 -0.56528848638E+01  0.16108732606E+02  0.00000000000E+00 0. -1.
<mgrwt>
<rscale>  0 0.12499737E+03</rscale>
<asrwt>0</asrwt>
<pdfrwt beam="1">  1       21 0.23309783E-02 0.12499737E+03</pdfrwt>
<pdfrwt beam="2">  1       21 0.39662204E-01 0.12499737E+03</pdfrwt>
<totfact> 0.57785128E+06</totfact>
</mgrwt>
</event>
<event>
 9    1  0.4541185E-002  0.1249941E+03  0.7818608E-02  0.1235078E+00
         21   -1    0    0  503  502  0.00000000000E+00  0.00000000000E+00  0.14638617076E+02  0.14638617076E+02  0.00000000000E+00 0.  1.
         21   -1    0    0  502  503 -0.00000000000E+00 -0.00000000000E+00 -0.26682041248E+03  0.26682041248E+03  0.00000000000E+00 0.  1.
         25    2    1    2    0    0  0.88817841970E-15  0.00000000000E+00 -0.25218179541E+03  0.28145902956E+03  0.12499410940E+03 0.  0.
    9000006    2    3    3    0    0  0.37162094148E+01 -0.16332926580E+02 -0.13742172752E+03  0.15088183349E+03  0.60000181499E+02 0.  0.
    9000007    2    3    3    0    0 -0.37162094148E+01  0.16332926580E+02 -0.11476006788E+03  0.13057719606E+03  0.59999635403E+02 0.  0.
          5    1    4    4  501    0 -0.10764218395E+02  0.67026950079E+01 -0.32636019209E+01  0.13911707858E+02  0.47000000000E+01 0. -1.
         -5    1    4    4    0  501  0.14480427810E+02 -0.23035621587E+02 -0.13415812560E+03  0.13697012564E+03  0.47000000000E+01 0. -1.
         12    1    5    5    0    0 -0.91754657011E+01 -0.21642845360E+02 -0.51138225721E+02  0.56282502218E+02  0.00000000000E+00 0. -1.
        -12    1    5    5    0    0  0.54592562863E+01  0.37975771939E+02 -0.63621842162E+02  0.74294693846E+02  0.00000000000E+00 0. -1.
<mgrwt>
<rscale>  0 0.12499411E+03</rscale>
<asrwt>0</asrwt>
<pdfrwt beam="1">  1       21 0.22520949E-02 0.12499411E+03</pdfrwt>
<pdfrwt beam="2">  1       21 0.41049295E-01 0.12499411E+03</pdfrwt>
<totfact> 0.57041531E+06</totfact>
</mgrwt>
</event>
<event>
 9    1  0.4541185E-002  0.1250032E+03  0.7818608E-02  0.1235064E+00
         21   -1    0    0  503  502  0.00000000000E+00  0.00000000000E+00  0.18799779165E+03  0.18799779165E+03  0.00000000000E+00 0. -1.
         21   -1    0    0  502  503 -0.00000000000E+00 -0.00000000000E+00 -0.20779226801E+02  0.20779226801E+02  0.00000000000E+00 0. -1.
         25    2    1    2    0    0  0.00000000000E+00  0.00000000000E+00  0.16721856485E+03  0.20877701845E+03  0.12500317997E+03 0.  0.
    9000006    2    3    3    0    0 -0.89153543289E+01 -0.13833857846E+02  0.93570581178E+02  0.11236715359E+03  0.60000536492E+02 0.  0.
    9000007    2    3    3    0    0  0.89153543289E+01  0.13833857846E+02  0.73647983674E+02  0.96409864858E+02  0.59999811475E+02 0.  0.
          5    1    4    4  501    0 -0.17669900738E+02 -0.27581635326E+02  0.24314627500E+02  0.41064134105E+02  0.47000000000E+01 0.  1.
         -5    1    4    4    0  501  0.87545464086E+01  0.13747777480E+02  0.69255953678E+02  0.71303019489E+02  0.47000000000E+01 0.  1.
         12    1    5    5    0    0  0.51835882149E+01  0.37702391254E+02  0.45236504900E+02  0.59115829256E+02  0.00000000000E+00 0.  1.
        -12    1    5    5    0    0  0.37317661140E+01 -0.23868533408E+02  0.28411478774E+02  0.37294035603E+02  0.00000000000E+00 0.  1.
<mgrwt>
<rscale>  0 0.12500318E+03</rscale>
<asrwt>0</asrwt>
<pdfrwt beam="1">  1       21 0.28922736E-01 0.12500318E+03</pdfrwt>
<pdfrwt beam="2">  1       21 0.31968042E-02 0.12500318E+03</pdfrwt>
<totfact> 0.63983291E+06</totfact>
</mgrwt>
</event>
<event>
 9    1  0.4541185E-002  0.1250043E+03  0.7818608E-02  0.1235063E+00
         21   -1    0    0  503  502  0.00000000000E+00  0.00000000000E+00  0.13976001032E+02  0.13976001032E+02  0.00000000000E+00 0.  1.
         21   -1    0    0  502  503 -0.00000000000E+00 -0.00000000000E+00 -0.27951622892E+03  0.27951622892E+03  0.00000000000E+00 0.  1.
         25    2    1    2    0    0  0.00000000000E+00  0.00000000000E+00 -0.26554022789E+03  0.29349222995E+03  0.12500430559E+03 0.  0.
    9000006    2    3    3    0    0 -0.10516161739E+01  0.17411098988E+02 -0.13626039408E+03  0.14990442626E+03  0.60001581251E+02 0.  0.
    9000007    2    3    3    0    0  0.10516161739E+01 -0.17411098988E+02 -0.12927983381E+03  0.14358780370E+03  0.59999413957E+02 0.  0.
          5    1    4    4  501    0  0.24935555900E+02  0.24361815066E+02 -0.76266730413E+02  0.83988000031E+02  0.47000000000E+01 0. -1.
         -5    1    4    4    0  501 -0.25987172074E+02 -0.69507160783E+01 -0.59993663667E+02  0.65916426227E+02  0.47000000000E+01 0. -1.
         12    1    5    5    0    0  0.26559968448E+02  0.54671606028E+01 -0.44041596375E+02  0.51720247295E+02  0.00000000000E+00 0. -1.
        -12    1    5    5    0    0 -0.25508352274E+02 -0.22878259591E+02 -0.85238237436E+02  0.91867556400E+02  0.00000000000E+00 0. -1.
<mgrwt>
<rscale>  0 0.12500431E+03</rscale>
<asrwt>0</asrwt>
<pdfrwt beam="1">  1       21 0.21501542E-02 0.12500431E+03</pdfrwt>
<pdfrwt beam="2">  1       21 0.43002493E-01 0.12500431E+03</pdfrwt>
<totfact> 0.55995310E+06</totfact>
</mgrwt>
</event>
<event>
 9    1  0.4541185E-002  0.1249998E+03  0.7818608E-02  0.1235070E+00
         21   -1    0    0  503  502  0.00000000000E+00  0.00000000000E+00  0.12500988498E+02  0.12500988498E+02  0.00000000000E+00 0. -1.
         21   -1    0    0  502  503 -0.00000000000E+00 -0.00000000000E+00 -0.31247432751E+03  0.31247432751E+03  0.00000000000E+00 0. -1.
         25    2    1    2    0    0  0.44408920985E-15  0.00000000000E+00 -0.29997333901E+03  0.32497531601E+03  0.12499980759E+03 0.  0.
    9000006    2    3    3    0    0 -0.35766706209E+01 -0.17037530008E+02 -0.15461114163E+03  0.16675629323E+03  0.59999885118E+02 0.  0.
    9000007    2    3    3    0    0  0.35766706209E+01  0.17037530008E+02 -0.14536219738E+03  0.15821902278E+03  0.60000172830E+02 0.  0.
          5    1    4    4  501    0 -0.38741913521E+01  0.61194261974E+01 -0.13703216089E+03  0.13730389599E+03  0.47000000000E+01 0. -1.
         -5    1    4    4    0  501  0.29752073122E+00 -0.23156956205E+02 -0.17578980735E+02  0.29452397236E+02  0.47000000000E+01 0. -1.
         12    1    5    5    0    0  0.19677416188E+02  0.13924294801E+02 -0.13826420600E+03  0.14034983917E+03  0.00000000000E+00 0. -1.
        -12    1    5    5    0    0 -0.16100745567E+02  0.31132352066E+01 -0.70979913827E+01  0.17869183611E+02  0.00000000000E+00 0. -1.
<mgrwt>
<rscale>  0 0.12499981E+03</rscale>
<asrwt>0</asrwt>
<pdfrwt beam="1">  1       21 0.19232291E-02 0.12499981E+03</pdfrwt>
<pdfrwt beam="2">  1       21 0.48072972E-01 0.12499981E+03</pdfrwt>
<totfact> 0.53441673E+06</totfact>
</mgrwt>
</event>
<event>
 9    1  0.4541185E-002  0.1249937E+03  0.7818608E-02  0.1235079E+00
         21   -1    0    0  503  502  0.00000000000E+00  0.00000000000E+00  0.76217835601E+01  0.76217835601E+01  0.00000000000E+00 0.  1.
         21   -1    0    0  502  503 -0.00000000000E+00 -0.00000000000E+00 -0.51245946512E+03  0.51245946512E+03  0.00000000000E+00 0.  1.
         25    2    1    2    0    0  0.44408920985E-15  0.00000000000E+00 -0.50483768156E+03  0.52008124868E+03  0.12499368186E+03 0.  0.
    9000006    2    3    3    0    0 -0.24191982248E+01  0.32085587224E+01 -0.32323848942E+03  0.32878475233E+03  0.60001207929E+02 0.  0.
    9000007    2    3    3    0    0  0.24191982248E+01 -0.32085587224E+01 -0.18159919214E+03  0.19129649635E+03  0.59999463005E+02 0.  0.
          5    1    4    4  501    0 -0.15846176912E+00 -0.27136260019E+02 -0.11323152245E+03  0.11653269668E+03  0.47000000000E+01 0. -1.
         -5    1    4    4    0  501 -0.22607364557E+01  0.30344818742E+02 -0.21000696697E+03  0.21225205566E+03  0.47000000000E+01 0. -1.
         12    1    5    5    0    0 -0.24015164412E+02  0.94682415117E+01 -0.12408151753E+03  0.12673830798E+03  0.00000000000E+00 0. -1.
        -12    1    5    5    0    0  0.26434362636E+02 -0.12676800234E+02 -0.57517674612E+02  0.64558188365E+02  0.00000000000E+00 0. -1.
<mgrwt>
<rscale>  0 0.12499368E+03</rscale>
<asrwt>0</asrwt>
<pdfrwt beam="1">  1       21 0.11725821E-02 0.12499368E+03</pdfrwt>
<pdfrwt beam="2">  1       21 0.78839920E-01 0.12499368E+03</pdfrwt>
<totfact> 0.40981990E+06</totfact>
</mgrwt>
</event>
<event>
 9    1  0.4541185E-002  0.1250075E+03  0.7818608E-02  0.1235058E+00
         21   -1    0    0  503  502  0.00000000000E+00  0.00000000000E+00  0.45942818778E+02  0.45942818778E+02  0.00000000000E+00 0. -1.
         21   -1    0    0  502  503 -0.00000000000E+00 -0.00000000000E+00 -0.85034341026E+02  0.85034341026E+02  0.00000000000E+00 0. -1.
         25    2    1    2    0    0 -0.35527136788E-14  0.35527136788E-14 -0.39091522248E+02  0.13097715980E+03  0.12500747689E+03 0.  0.
    9000006    2    3    3    0    0  0.42273257595E+01  0.16871995127E+02 -0.17384608713E+02  0.64843851102E+02  0.59999715858E+02 0.  0.
    9000007    2    3    3    0    0 -0.42273257595E+01 -0.16871995127E+02 -0.21706913535E+02  0.66133308702E+02  0.59999082676E+02 0.  0.
          5    1    4    4  501    0 -0.21305658889E+02  0.18607298228E+01  0.10146433615E+02  0.24133659716E+02  0.47000000000E+01 0.  1.
         -5    1    4    4    0  501  0.25532984648E+02  0.15011265304E+02 -0.27531042328E+02  0.40710191387E+02  0.47000000000E+01 0.  1.
         12    1    5    5    0    0  0.20856382875E+02  0.60318735250E+00 -0.28002257197E+02  0.34921038784E+02  0.00000000000E+00 0. -1.
        -12    1    5    5    0    0 -0.25083708635E+02 -0.17475182480E+02  0.62953436626E+01  0.31212269918E+02  0.00000000000E+00 0. -1.
<mgrwt>
<rscale>  0 0.12500748E+03</rscale>
<asrwt>0</asrwt>
<pdfrwt beam="1">  1       21 0.70681260E-02 0.12500748E+03</pdfrwt>
<pdfrwt beam="2">  1       21 0.13082206E-01 0.12500748E+03</pdfrwt>
<totfact> 0.73219782E+06</totfact>
</mgrwt>
</event>
<event>
 9    1  0.4541185E-002  0.1250092E+03  0.7818608E-02  0.1235055E+00
         21   -1    0    0  503  502  0.00000000000E+00  0.00000000000E+00  0.12323667406E+03  0.12323667406E+03  0.00000000000E+00 0. -1.
         21   -1    0    0  502  503 -0.00000000000E+00 -0.00000000000E+00 -0.31701823426E+02  0.31701823426E+02  0.00000000000E+00 0. -1.
         25    2    1    2    0    0 -0.17763568394E-14 -0.17763568394E-14  0.91534850634E+02  0.15493849749E+03  0.12500923615E+03 0.  0.
    9000006    2    3    3    0    0 -0.12083573594E+02 -0.59896691299E+01  0.31924012932E+02  0.69290625006E+02  0.60001326860E+02 0.  0.
    9000007    2    3    3    0    0  0.12083573594E+02  0.59896691299E+01  0.59610837702E+02  0.85647872480E+02  0.60001809987E+02 0.  0.
          5    1    4    4  501    0  0.63714191858E+01  0.64808473600E+01 -0.14406320204E+02  0.17669986609E+02  0.47000000000E+01 0. -1.
         -5    1    4    4    0  501 -0.18454992779E+02 -0.12470516490E+02  0.46330333136E+02  0.51620638397E+02  0.47000000000E+01 0. -1.
         12    1    5    5    0    0  0.60409822783E+01  0.19381597894E+02 -0.37164732717E+01  0.20638604056E+02  0.00000000000E+00 0. -1.
        -12    1    5    5    0    0  0.60425913153E+01 -0.13391928764E+02  0.63327310974E+02  0.65009268424E+02  0.00000000000E+00 0. -1.
<mgrwt>
<rscale>  0 0.12500924E+03</rscale>
<asrwt>0</asrwt>
<pdfrwt beam="1">  1       21 0.18959488E-01 0.12500924E+03</pdfrwt>
<pdfrwt beam="2">  1       21 0.48772037E-02 0.12500924E+03</pdfrwt>
<totfact> 0.70126827E+06</totfact>
</mgrwt>
</event>
<event>
 9    1  0.4541185E-002  0.1250008E+03  0.7818608E-02  0.1235068E+00
         21   -1    0    0  503  502  0.00000000000E+00  0.00000000000E+00  0.11964408649E+03  0.11964408649E+03  0.00000000000E+00 0.  1.
         21   -1    0    0  502  503 -0.00000000000E+00 -0.00000000000E+00 -0.32649339904E+02  0.32649339904E+02  0.00000000000E+00 0.  1.
         25    2    1    2    0    0  0.00000000000E+00 -0.17763568394E-14  0.86994746586E+02  0.15229342639E+03  0.12500080715E+03 0.  0.
    9000006    2    3    3    0    0 -0.61867235257E+01 -0.11323878694E+02  0.57902923060E+02  0.84375412659E+02  0.59999633215E+02 0.  0.
    9000007    2    3    3    0    0  0.61867235257E+01  0.11323878694E+02  0.29091823526E+02  0.67918013734E+02  0.60000138473E+02 0.  0.
          5    1    4    4  501    0 -0.25655853438E+02 -0.25670721795E+02  0.31803898965E+02  0.48484912730E+02  0.47000000000E+01 0.  1.
         -5    1    4    4    0  501  0.19469129912E+02  0.14346843100E+02  0.26099024094E+02  0.35890499929E+02  0.47000000000E+01 0.  1.
         12    1    5    5    0    0 -0.14994261194E+02  0.28385628958E+02  0.69488863567E+01  0.32845986386E+02  0.00000000000E+00 0.  1.
        -12    1    5    5    0    0  0.21180984720E+02 -0.17061750263E+02  0.22142937169E+02  0.35072027347E+02  0.00000000000E+00 0.  1.
<mgrwt>
<rscale>  0 0.12500081E+03</rscale>
<asrwt>0</asrwt>
<pdfrwt beam="1">  1       21 0.18406782E-01 0.12500081E+03</pdfrwt>
<pdfrwt beam="2">  1       21 0.50229754E-02 0.12500081E+03</pdfrwt>
<totfact> 0.70470833E+06</totfact>
</mgrwt>
</event>
<event>
 9    1  0.4541185E-002  0.1249829E+03  0.7818608E-02  0.1235096E+00
         21   -1    0    0  503  502  0.00000000000E+00  0.00000000000E+00  0.11329693838E+02  0.11329693838E+02  0.00000000000E+00 0. -1.
         21   -1    0    0  502  503 -0.00000000000E+00 -0.00000000000E+00 -0.34468529979E+03  0.34468529979E+03  0.00000000000E+00 0. -1.
         25    2    1    2    0    0  0.00000000000E+00  0.00000000000E+00 -0.33335560595E+03  0.35601499362E+03  0.12498286150E+03 0.  0.
    9000006    2    3    3    0    0  0.75579457948E+01  0.14224380547E+02 -0.14738634151E+03  0.15994495027E+03  0.60001649200E+02 0.  0.
    9000007    2    3    3    0    0 -0.75579457948E+01 -0.14224380547E+02 -0.18596926444E+03  0.19607004336E+03  0.59995325137E+02 0.  0.
          5    1    4    4  501    0  0.70480672196E+01  0.13179787853E+02 -0.35983291385E+01  0.16075448111E+02  0.47000000000E+01 0. -1.
         -5    1    4    4    0  501  0.50987857525E+00  0.10445926945E+01 -0.14378801237E+03  0.14386950216E+03  0.47000000000E+01 0. -1.
         12    1    5    5    0    0  0.21697384187E+02  0.32577506346E+01 -0.11814084719E+03  0.12016093040E+03  0.00000000000E+00 0. -1.
        -12    1    5    5    0    0 -0.29255329982E+02 -0.17482131182E+02 -0.67828417253E+02  0.75909112958E+02  0.00000000000E+00 0. -1.
<mgrwt>
<rscale>  0 0.12498286E+03</rscale>
<asrwt>0</asrwt>
<pdfrwt beam="1">  1       21 0.17430299E-02 0.12498286E+03</pdfrwt>
<pdfrwt beam="2">  1       21 0.53028507E-01 0.12498286E+03</pdfrwt>
<totfact> 0.51119191E+06</totfact>
</mgrwt>
</event>
<event>
 9    1  0.4541185E-002  0.1250022E+03  0.7818608E-02  0.1235066E+00
         21   -1    0    0  503  502  0.00000000000E+00  0.00000000000E+00  0.35107776271E+02  0.35107776271E+02  0.00000000000E+00 0.  1.
         21   -1    0    0  502  503 -0.00000000000E+00 -0.00000000000E+00 -0.11126851168E+03  0.11126851168E+03  0.00000000000E+00 0.  1.
         25    2    1    2    0    0  0.00000000000E+00  0.35527136788E-14 -0.76160735410E+02  0.14637628795E+03  0.12500224021E+03 0.  0.
    9000006    2    3    3    0    0 -0.11445287066E+02  0.81099627722E+01 -0.50342832361E+02  0.79568026899E+02  0.59999200347E+02 0.  0.
    9000007    2    3    3    0    0  0.11445287066E+02 -0.81099627722E+01 -0.25817903050E+02  0.66808261054E+02  0.60000112792E+02 0.  0.
          5    1    4    4  501    0  0.10245028478E+02 -0.17699834003E+02 -0.37907463176E+02  0.43327941293E+02  0.47000000000E+01 0. -1.
         -5    1    4    4    0  501 -0.21690315544E+02  0.25809796775E+02 -0.12435369185E+02  0.36240085606E+02  0.47000000000E+01 0. -1.
         12    1    5    5    0    0  0.11198670977E+02 -0.30625961028E+02 -0.78077860228E-01  0.32609290343E+02  0.00000000000E+00 0.  1.
        -12    1    5    5    0    0  0.24661608901E+00  0.22515998255E+02 -0.25739825189E+02  0.34198970711E+02  0.00000000000E+00 0.  1.
<mgrwt>
<rscale>  0 0.12500224E+03</rscale>
<asrwt>0</asrwt>
<pdfrwt beam="1">  1       21 0.54011964E-02 0.12500224E+03</pdfrwt>
<pdfrwt beam="2">  1       21 0.17118232E-01 0.12500224E+03</pdfrwt>
<totfact> 0.71213368E+06</totfact>
</mgrwt>
</event>
<event>
 9    1  0.4541185E-002  0.1249965E+03  0.7818608E-02  0.1235075E+00
         21   -1    0    0  503  502  0.00000000000E+00  0.00000000000E+00  0.98822315632E+03  0.98822315632E+03  0.00000000000E+00 0. -1.
         21   -1    0    0  502  503 -0.00000000000E+00 -0.00000000000E+00 -0.39525826029E+01  0.39525826029E+01  0.00000000000E+00 0. -1.
         25    2    1    2    0    0  0.00000000000E+00  0.00000000000E+00  0.98427057371E+03  0.99217573892E+03  0.12499653844E+03 0.  0.
    9000006    2    3    3    0    0  0.13781638701E+02  0.19340169788E+01  0.57625979051E+03  0.57954221781E+03  0.60001350617E+02 0.  0.
    9000007    2    3    3    0    0 -0.13781638701E+02 -0.19340169788E+01  0.40801078320E+03  0.41263352111E+03  0.59999579562E+02 0.  0.
          5    1    4    4  501    0 -0.84248158799E+01  0.23192958443E+02  0.14476461350E+03  0.14692778555E+03  0.47000000000E+01 0.  1.
         -5    1    4    4    0  501  0.22206454581E+02 -0.21258941464E+02  0.43149517701E+03  0.43261443226E+03  0.47000000000E+01 0.  1.
         12    1    5    5    0    0 -0.10790078658E+02 -0.29945463358E+02  0.26232879547E+03  0.26425282119E+03  0.00000000000E+00 0. -1.
        -12    1    5    5    0    0 -0.29915600433E+01  0.28011446379E+02  0.14568198773E+03  0.14838069992E+03  0.00000000000E+00 0. -1.
<mgrwt>
<rscale>  0 0.12499654E+03</rscale>
<asrwt>0</asrwt>
<pdfrwt beam="1">  1       21 0.15203414E+00 0.12499654E+03</pdfrwt>
<pdfrwt beam="2">  1       21 0.60809042E-03 0.12499654E+03</pdfrwt>
<totfact> 0.23817214E+06</totfact>
</mgrwt>
</event>
<event>
 9    1  0.4541185E-002  0.1249999E+03  0.7818608E-02  0.1235069E+00
         21   -1    0    0  503  502  0.00000000000E+00  0.00000000000E+00  0.25636514996E+03  0.25636514996E+03  0.00000000000E+00 0.  1.
         21   -1    0    0  502  503 -0.00000000000E+00 -0.00000000000E+00 -0.15237031021E+02  0.15237031021E+02  0.00000000000E+00 0.  1.
         25    2    1    2    0    0  0.00000000000E+00 -0.88817841970E-15  0.24112811894E+03  0.27160218098E+03  0.12499989988E+03 0.  0.
    9000006    2    3    3    0    0  0.35499948941E+01 -0.87235418334E+00  0.15774735341E+03  0.16881229283E+03  0.59999993650E+02 0.  0.
    9000007    2    3    3    0    0 -0.35499948941E+01  0.87235418334E+00  0.83380765532E+02  0.10278988815E+03  0.60000379829E+02 0.  0.
          5    1    4    4  501    0  0.23469304652E+02  0.20317595633E+01  0.13849965217E+03  0.14056735026E+03  0.47000000000E+01 0.  1.
         -5    1    4    4    0  501 -0.19919309757E+02 -0.29041137466E+01  0.19247701235E+02  0.28244942569E+02  0.47000000000E+01 0.  1.
         12    1    5    5    0    0  0.12906577299E+02 -0.72546734095E+01  0.83125925544E+02  0.84434172711E+02  0.00000000000E+00 0.  1.
        -12    1    5    5    0    0 -0.16456572193E+02  0.81270275929E+01  0.25483998778E+00  0.18355715439E+02  0.00000000000E+00 0.  1.
<mgrwt>
<rscale>  0 0.12499990E+03</rscale>
<asrwt>0</asrwt>
<pdfrwt beam="1">  1       21 0.39440789E-01 0.12499990E+03</pdfrwt>
<pdfrwt beam="2">  1       21 0.23441588E-02 0.12499990E+03</pdfrwt>
<totfact> 0.57902056E+06</totfact>
</mgrwt>
</event>
<event>
 9    1  0.4541185E-002  0.1249973E+03  0.7818608E-02  0.1235073E+00
         21   -1    0    0  503  502  0.00000000000E+00  0.00000000000E+00  0.29358462213E+02  0.29358462213E+02  0.00000000000E+00 0. -1.
         21   -1    0    0  502  503 -0.00000000000E+00 -0.00000000000E+00 -0.13304796302E+03  0.13304796302E+03  0.00000000000E+00 0. -1.
         25    2    1    2    0    0  0.00000000000E+00  0.17763568394E-14 -0.10368950081E+03  0.16240642523E+03  0.12499733749E+03 0.  0.
    9000006    2    3    3    0    0 -0.59712425171E+01  0.19781688478E+01 -0.30632592911E+02  0.67660101485E+02  0.59999705794E+02 0.  0.
    9000007    2    3    3    0    0  0.59712425171E+01 -0.19781688478E+01 -0.73056907896E+02  0.94746323747E+02  0.59999876525E+02 0.  0.
          5    1    4    4  501    0 -0.74202294703E+01  0.24025699163E+02  0.44192043508E+01  0.25959841924E+02  0.47000000000E+01 0. -1.
         -5    1    4    4    0  501  0.14489869532E+01 -0.22047530315E+02 -0.35051797262E+02  0.41700259561E+02  0.47000000000E+01 0. -1.
         12    1    5    5    0    0 -0.13267401529E+00 -0.89874647586E+01 -0.81617046801E+02  0.82110501483E+02  0.00000000000E+00 0. -1.
        -12    1    5    5    0    0  0.61039165324E+01  0.70092959108E+01  0.85601389058E+01  0.12635822264E+02  0.00000000000E+00 0. -1.
<mgrwt>
<rscale>  0 0.12499734E+03</rscale>
<asrwt>0</asrwt>
<pdfrwt beam="1">  1       21 0.45166865E-02 0.12499734E+03</pdfrwt>
<pdfrwt beam="2">  1       21 0.20468917E-01 0.12499734E+03</pdfrwt>
<totfact> 0.69231331E+06</totfact>
</mgrwt>
</event>
<event>
 9    1  0.4541185E-002  0.1250056E+03  0.7818608E-02  0.1235061E+00
         21   -1    0    0  503  502  0.00000000000E+00  0.00000000000E+00  0.21574816614E+01  0.21574816614E+01  0.00000000000E+00 0.  1.
         21   -1    0    0  502  503 -0.00000000000E+00 -0.00000000000E+00 -0.18107225838E+04  0.18107225838E+04  0.00000000000E+00 0.  1.
         25    2    1    2    0    0  0.26645352591E-14  0.00000000000E+00 -0.18085651021E+04  0.18128800654E+04  0.12500561217E+03 0.  0.
    9000006    2    3    3    0    0 -0.41743431377E+01  0.14552244111E+02 -0.77674715649E+03  0.77920819123E+03  0.60000560069E+02 0.  0.
    9000007    2    3    3    0    0  0.41743431377E+01 -0.14552244111E+02 -0.10318179456E+04  0.10336718742E+04  0.60000647278E+02 0.  0.
          5    1    4    4  501    0  0.76346318846E+00  0.37258676826E+02 -0.42120870881E+03  0.42288019374E+03  0.47000000000E+01 0.  1.
         -5    1    4    4    0  501 -0.49378063262E+01 -0.22706432715E+02 -0.35553844768E+03  0.35632799749E+03  0.47000000000E+01 0.  1.
         12    1    5    5    0    0 -0.19693798556E+02 -0.68002005867E+01 -0.83507449532E+03  0.83533436489E+03  0.00000000000E+00 0.  1.
        -12    1    5    5    0    0  0.23868141694E+02 -0.77520435247E+01 -0.19674345029E+03  0.19833750931E+03  0.00000000000E+00 0.  1.
<mgrwt>
<rscale>  0 0.12500561E+03</rscale>
<asrwt>0</asrwt>
<pdfrwt beam="1">  1       21 0.33192156E-03 0.12500561E+03</pdfrwt>
<pdfrwt beam="2">  1       21 0.27857161E+00 0.12500561E+03</pdfrwt>
<totfact> 0.99211771E+05</totfact>
</mgrwt>
</event>
<event>
 9    1  0.4541185E-002  0.1249403E+03  0.7818608E-02  0.1235163E+00
         21   -1    0    0  503  502  0.00000000000E+00  0.00000000000E+00  0.50995474625E+02  0.50995474625E+02  0.00000000000E+00 0. -1.
         21   -1    0    0  502  503 -0.00000000000E+00 -0.00000000000E+00 -0.76526785290E+02  0.76526785290E+02  0.00000000000E+00 0. -1.
         25    2    1    2    0    0  0.00000000000E+00 -0.13322676296E-14 -0.25531310665E+02  0.12752225992E+03  0.12494030154E+03 0.  0.
    9000006    2    3    3    0    0 -0.58809226794E+00 -0.35672959851E+01  0.45977172314E+01  0.60285459399E+02  0.60001051308E+02 0.  0.
    9000007    2    3    3    0    0  0.58809226794E+00  0.35672959851E+01 -0.30129027896E+02  0.67236800516E+02  0.59999646403E+02 0.  0.
          5    1    4    4  501    0  0.17359848017E+02 -0.19365879119E+01  0.26152594109E+02  0.31798787313E+02  0.47000000000E+01 0.  1.
         -5    1    4    4    0  501 -0.17947940285E+02 -0.16307080732E+01 -0.21554876878E+02  0.28486672086E+02  0.47000000000E+01 0.  1.
         12    1    5    5    0    0 -0.21370050167E+02 -0.13933944256E+02  0.72065115086E+00  0.25521621906E+02  0.00000000000E+00 0.  1.
        -12    1    5    5    0    0  0.21958142434E+02  0.17501240241E+02 -0.30849679047E+02  0.41715178610E+02  0.00000000000E+00 0.  1.
<mgrwt>
<rscale>  0 0.12494030E+03</rscale>
<asrwt>0</asrwt>
<pdfrwt beam="1">  1       21 0.78454577E-02 0.12494030E+03</pdfrwt>
<pdfrwt beam="2">  1       21 0.11773352E-01 0.12494030E+03</pdfrwt>
<totfact> 0.73810628E+06</totfact>
</mgrwt>
</event>
<event>
 9    1  0.4541185E-002  0.1250413E+03  0.7818608E-02  0.1235005E+00
         21   -1    0    0  503  502  0.00000000000E+00  0.00000000000E+00  0.95250420238E+01  0.95250420238E+01  0.00000000000E+00 0.  1.
         21   -1    0    0  502  503 -0.00000000000E+00 -0.00000000000E+00 -0.41037391534E+03  0.41037391534E+03  0.00000000000E+00 0.  1.
         25    2    1    2    0    0  0.00000000000E+00  0.00000000000E+00 -0.40084887332E+03  0.41989895737E+03  0.12504125382E+03 0.  0.
    9000006    2    3    3    0    0 -0.11565776469E+02 -0.10504387176E+02 -0.17334704939E+03  0.18409985473E+03  0.59995396841E+02 0.  0.
    9000007    2    3    3    0    0  0.11565776469E+02  0.10504387176E+02 -0.22750182392E+03  0.23579910264E+03  0.60000229838E+02 0.  0.
          5    1    4    4  501    0 -0.29468459681E+02  0.12409070461E+02 -0.98450091583E+02  0.10361894459E+03  0.47000000000E+01 0. -1.
         -5    1    4    4    0  501  0.17902683211E+02 -0.22913457636E+02 -0.74896957811E+02  0.80480910136E+02  0.47000000000E+01 0. -1.
         12    1    5    5    0    0  0.12025085921E+02  0.33402750817E+02 -0.96776953311E+02  0.10308309825E+03  0.00000000000E+00 0. -1.
        -12    1    5    5    0    0 -0.45930945169E+00 -0.22898363641E+02 -0.13072487061E+03  0.13271600438E+03  0.00000000000E+00 0. -1.
<mgrwt>
<rscale>  0 0.12504125E+03</rscale>
<asrwt>0</asrwt>
<pdfrwt beam="1">  1       21 0.14653910E-02 0.12504125E+03</pdfrwt>
<pdfrwt beam="2">  1       21 0.63134452E-01 0.12504125E+03</pdfrwt>
<totfact> 0.46700753E+06</totfact>
</mgrwt>
</event>
<event>
 9    1  0.4541185E-002  0.1249827E+03  0.7818608E-02  0.1235096E+00
         21   -1    0    0  503  502  0.00000000000E+00  0.00000000000E+00  0.18669039787E+02  0.18669039787E+02  0.00000000000E+00 0. -1.
         21   -1    0    0  502  503 -0.00000000000E+00 -0.00000000000E+00 -0.20917888067E+03  0.20917888067E+03  0.00000000000E+00 0. -1.
         25    2    1    2    0    0 -0.17763568394E-14 -0.35527136788E-14 -0.19050984088E+03  0.22784792046E+03  0.12498270034E+03 0.  0.
    9000006    2    3    3    0    0  0.43712833032E+01 -0.15862925996E+02 -0.10595333741E+03  0.12286912299E+03  0.59999759482E+02 0.  0.
    9000007    2    3    3    0    0 -0.43712833032E+01  0.15862925996E+02 -0.84556503473E+02  0.10497879746E+03  0.60000042488E+02 0.  0.
          5    1    4    4  501    0  0.12962444675E+02  0.15445698066E+02 -0.13371079080E+02  0.24646912919E+02  0.47000000000E+01 0. -1.
         -5    1    4    4    0  501 -0.85911613714E+01 -0.31308624062E+02 -0.92582258328E+02  0.98222210072E+02  0.47000000000E+01 0. -1.
         12    1    5    5    0    0  0.25891155999E+02  0.15407089309E+02 -0.29581699036E+02  0.42223302545E+02  0.00000000000E+00 0. -1.
        -12    1    5    5    0    0 -0.30262439302E+02  0.45583668653E+00 -0.54974804437E+02  0.62755494919E+02  0.00000000000E+00 0. -1.
<mgrwt>
<rscale>  0 0.12498270E+03</rscale>
<asrwt>0</asrwt>
<pdfrwt beam="1">  1       21 0.28721599E-02 0.12498270E+03</pdfrwt>
<pdfrwt beam="2">  1       21 0.32181367E-01 0.12498270E+03</pdfrwt>
<totfact> 0.62055903E+06</totfact>
</mgrwt>
</event>
<event>
 9    1  0.4541185E-002  0.1250032E+03  0.7818608E-02  0.1235064E+00
         21   -1    0    0  503  502  0.00000000000E+00  0.00000000000E+00  0.21258764038E+03  0.21258764038E+03  0.00000000000E+00 0. -1.
         21   -1    0    0  502  503 -0.00000000000E+00 -0.00000000000E+00 -0.18375729294E+02  0.18375729294E+02  0.00000000000E+00 0. -1.
         25    2    1    2    0    0 -0.17763568394E-14  0.17763568394E-14  0.19421191109E+03  0.23096336968E+03  0.12500324685E+03 0.  0.
    9000006    2    3    3    0    0 -0.96393851317E+01 -0.13917559900E+02  0.10534095876E+03  0.12240619530E+03  0.59999523636E+02 0.  0.
    9000007    2    3    3    0    0  0.96393851317E+01  0.13917559900E+02  0.88870952329E+02  0.10855717438E+03  0.59999981011E+02 0.  0.
          5    1    4    4  501    0 -0.17386736423E+01 -0.20528101241E+02  0.10858951973E+03  0.11062639704E+03  0.47000000000E+01 0.  1.
         -5    1    4    4    0  501 -0.79007114894E+01  0.66105413413E+01 -0.32485609658E+01  0.11779798267E+02  0.47000000000E+01 0.  1.
         12    1    5    5    0    0  0.17636657752E+02  0.12700945112E+02  0.25785010990E+01  0.21886396946E+02  0.00000000000E+00 0.  1.
        -12    1    5    5    0    0 -0.79972726201E+01  0.12166147883E+01  0.86292451230E+02  0.86670777429E+02  0.00000000000E+00 0.  1.
<mgrwt>
<rscale>  0 0.12500325E+03</rscale>
<asrwt>0</asrwt>
<pdfrwt beam="1">  1       21 0.32705789E-01 0.12500325E+03</pdfrwt>
<pdfrwt beam="2">  1       21 0.28270354E-02 0.12500325E+03</pdfrwt>
<totfact> 0.61713181E+06</totfact>
</mgrwt>
</event>
<event>
 9    1  0.4541185E-002  0.1249995E+03  0.7818608E-02  0.1235070E+00
         21   -1    0    0  503  502  0.00000000000E+00  0.00000000000E+00  0.24747830050E+04  0.24747830050E+04  0.00000000000E+00 0. -1.
         21   -1    0    0  502  503 -0.00000000000E+00 -0.00000000000E+00 -0.15784093839E+01  0.15784093839E+01  0.00000000000E+00 0. -1.
         25    2    1    2    0    0  0.00000000000E+00  0.53290705182E-14  0.24732045956E+04  0.24763614144E+04  0.12499953149E+03 0.  0.
    9000006    2    3    3    0    0  0.74799857654E+01  0.77660103633E+01  0.96362123311E+03  0.96554761169E+03  0.60000403575E+02 0.  0.
    9000007    2    3    3    0    0 -0.74799857654E+01 -0.77660103633E+01  0.15095833625E+04  0.15108138027E+04  0.60001308000E+02 0.  0.
          5    1    4    4  501    0 -0.10341866011E+02  0.20401005222E+02  0.80726194600E+03  0.80759958808E+03  0.47000000000E+01 0.  1.
         -5    1    4    4    0  501  0.17821851776E+02 -0.12634994858E+02  0.15635928711E+03  0.15794802361E+03  0.47000000000E+01 0.  1.
         12    1    5    5    0    0  0.85267083833E+01 -0.17538205243E+02  0.13487138097E+04  0.13488547861E+04  0.00000000000E+00 0.  1.
        -12    1    5    5    0    0 -0.16006694149E+02  0.97721948800E+01  0.16086955277E+03  0.16195901661E+03  0.00000000000E+00 0.  1.
<mgrwt>
<rscale>  0 0.12499953E+03</rscale>
<asrwt>0</asrwt>
<pdfrwt beam="1">  1       21 0.38073274E+00 0.12499953E+03</pdfrwt>
<pdfrwt beam="2">  1       21 0.24283419E-03 0.12499953E+03</pdfrwt>
<totfact> 0.41680991E+05</totfact>
</mgrwt>
</event>
<event>
 9    1  0.4541185E-002  0.1250008E+03  0.7818608E-02  0.1235068E+00
         21   -1    0    0  503  502  0.00000000000E+00  0.00000000000E+00  0.36120754810E+02  0.36120754810E+02  0.00000000000E+00 0. -1.
         21   -1    0    0  502  503 -0.00000000000E+00 -0.00000000000E+00 -0.10814551016E+03  0.10814551016E+03  0.00000000000E+00 0. -1.
         25    2    1    2    0    0 -0.17763568394E-14  0.00000000000E+00 -0.72024755351E+02  0.14426626497E+03  0.12500075930E+03 0.  0.
    9000006    2    3    3    0    0  0.15908136962E+02  0.10065687812E+01 -0.27676121665E+02  0.67970675479E+02  0.59999691769E+02 0.  0.
    9000007    2    3    3    0    0 -0.15908136962E+02 -0.10065687812E+01 -0.44348633686E+02  0.76295589491E+02  0.60001113854E+02 0.  0.
          5    1    4    4  501    0 -0.13179120435E+02 -0.21042696334E+02 -0.10677104787E+02  0.27433097730E+02  0.47000000000E+01 0.  1.
         -5    1    4    4    0  501  0.29087257397E+02  0.22049265115E+02 -0.16999016878E+02  0.40537577749E+02  0.47000000000E+01 0.  1.
         12    1    5    5    0    0  0.75335568415E+01 -0.23357638013E+02 -0.45129951639E+01  0.24953974785E+02  0.00000000000E+00 0.  1.
        -12    1    5    5    0    0 -0.23441693804E+02  0.22351069232E+02 -0.39835638522E+02  0.51341614706E+02  0.00000000000E+00 0.  1.
<mgrwt>
<rscale>  0 0.12500076E+03</rscale>
<asrwt>0</asrwt>
<pdfrwt beam="1">  1       21 0.55570392E-02 0.12500076E+03</pdfrwt>
<pdfrwt beam="2">  1       21 0.16637771E-01 0.12500076E+03</pdfrwt>
<totfact> 0.71485749E+06</totfact>
</mgrwt>
</event>
<event>
 9    1  0.4541185E-002  0.1249987E+03  0.7818608E-02  0.1235071E+00
         21   -1    0    0  503  502  0.00000000000E+00  0.00000000000E+00  0.10864555994E+02  0.10864555994E+02  0.00000000000E+00 0. -1.
         21   -1    0    0  502  503 -0.00000000000E+00 -0.00000000000E+00 -0.35953316431E+03  0.35953316431E+03  0.00000000000E+00 0. -1.
         25    2    1    2    0    0  0.00000000000E+00  0.00000000000E+00 -0.34866860832E+03  0.37039772031E+03  0.12499869112E+03 0.  0.
    9000006    2    3    3    0    0  0.10011671324E+01 -0.17455209309E+02 -0.17745717921E+03  0.18814030735E+03  0.60000317749E+02 0.  0.
    9000007    2    3    3    0    0 -0.10011671324E+01  0.17455209309E+02 -0.17121142911E+03  0.18225741295E+03  0.59989369490E+02 0.  0.
          5    1    4    4  501    0 -0.66691569521E+01 -0.12158885523E+02 -0.17709043532E+03  0.17769476197E+03  0.47000000000E+01 0.  1.
         -5    1    4    4    0  501  0.76703240845E+01 -0.52963237856E+01 -0.36674389242E+00  0.10445545380E+02  0.47000000000E+01 0.  1.
         12    1    5    5    0    0 -0.53285262963E+01 -0.20579719955E+02 -0.89993483493E+02  0.92470239196E+02  0.00000000000E+00 0.  1.
        -12    1    5    5    0    0  0.43273591639E+01  0.38034929263E+02 -0.81217945616E+02  0.89787173758E+02  0.00000000000E+00 0.  1.
<mgrwt>
<rscale>  0 0.12499869E+03</rscale>
<asrwt>0</asrwt>
<pdfrwt beam="1">  1       21 0.16714702E-02 0.12499869E+03</pdfrwt>
<pdfrwt beam="2">  1       21 0.55312791E-01 0.12499869E+03</pdfrwt>
<totfact> 0.50068029E+06</totfact>
</mgrwt>
</event>
<event>
 9    1  0.4541185E-002  0.1250000E+03  0.7818608E-02  0.1235069E+00
         21   -1    0    0  503  502  0.00000000000E+00  0.00000000000E+00  0.46964626967E+02  0.46964626967E+02  0.00000000000E+00 0.  1.
         21   -1    0    0  502  503 -0.00000000000E+00 -0.00000000000E+00 -0.83174246898E+02  0.83174246898E+02  0.00000000000E+00 0.  1.
         25    2    1    2    0    0  0.35527136788E-14  0.00000000000E+00 -0.36209619931E+02  0.13013887387E+03  0.12499995966E+03 0.  0.
    9000006    2    3    3    0    0  0.13134622605E+02 -0.10263948616E+02 -0.12559582044E+02  0.63526363757E+02  0.59999906991E+02 0.  0.
    9000007    2    3    3    0    0 -0.13134622605E+02  0.10263948616E+02 -0.23650037888E+02  0.66612510108E+02  0.60000293822E+02 0.  0.
          5    1    4    4  501    0  0.30208314723E+02 -0.18788536335E+02 -0.21610599028E+02  0.41888654387E+02  0.47000000000E+01 0.  1.
         -5    1    4    4    0  501 -0.17073692119E+02  0.85245877190E+01  0.90510169840E+01  0.21637709370E+02  0.47000000000E+01 0.  1.
         12    1    5    5    0    0  0.13781028656E+02 -0.14881015601E+02  0.38515242762E+01  0.20644505695E+02  0.00000000000E+00 0.  1.
        -12    1    5    5    0    0 -0.26915651261E+02  0.25144964217E+02 -0.27501562164E+02  0.45968004413E+02  0.00000000000E+00 0.  1.
<mgrwt>
<rscale>  0 0.12499996E+03</rscale>
<asrwt>0</asrwt>
<pdfrwt beam="1">  1       21 0.72253273E-02 0.12499996E+03</pdfrwt>
<pdfrwt beam="2">  1       21 0.12796038E-01 0.12499996E+03</pdfrwt>
<totfact> 0.73346436E+06</totfact>
</mgrwt>
</event>
<event>
 9    1  0.4541185E-002  0.1249802E+03  0.7818608E-02  0.1235100E+00
         21   -1    0    0  503  502  0.00000000000E+00  0.00000000000E+00  0.19493104983E+02  0.19493104983E+02  0.00000000000E+00 0.  1.
         21   -1    0    0  502  503 -0.00000000000E+00 -0.00000000000E+00 -0.20032804954E+03  0.20032804954E+03  0.00000000000E+00 0.  1.
         25    2    1    2    0    0 -0.88817841970E-15 -0.26645352591E-14 -0.18083494455E+03  0.21982115452E+03  0.12498024965E+03 0.  0.
    9000006    2    3    3    0    0 -0.36230458886E+01  0.57510649958E+01 -0.62131953404E+02  0.86642050114E+02  0.60002199994E+02 0.  0.
    9000007    2    3    3    0    0  0.36230458886E+01 -0.57510649958E+01 -0.11870299115E+03  0.13317910441E+03  0.60000604434E+02 0.  0.
          5    1    4    4  501    0  0.92854742699E+01  0.83212237099E+01  0.77240228748E+01  0.15401731260E+02  0.47000000000E+01 0. -1.
         -5    1    4    4    0  501 -0.12908520158E+02 -0.25701587141E+01 -0.69855976279E+02  0.71240318854E+02  0.47000000000E+01 0. -1.
         12    1    5    5    0    0  0.40928413354E+01  0.26255712681E+02 -0.70244339142E+02  0.75102469867E+02  0.00000000000E+00 0. -1.
        -12    1    5    5    0    0 -0.46979544685E+00 -0.32006777677E+02 -0.48458652008E+02  0.58076634539E+02  0.00000000000E+00 0. -1.
<mgrwt>
<rscale>  0 0.12498025E+03</rscale>
<asrwt>0</asrwt>
<pdfrwt beam="1">  1       21 0.29989392E-02 0.12498025E+03</pdfrwt>
<pdfrwt beam="2">  1       21 0.30819701E-01 0.12498025E+03</pdfrwt>
<totfact> 0.62872198E+06</totfact>
</mgrwt>
</event>
<event>
 9    1  0.4541185E-002  0.1250012E+03  0.7818608E-02  0.1235067E+00
         21   -1    0    0  503  502  0.00000000000E+00  0.00000000000E+00  0.66484887228E+02  0.66484887228E+02  0.00000000000E+00 0.  1.
         21   -1    0    0  502  503 -0.00000000000E+00 -0.00000000000E+00 -0.58755124229E+02  0.58755124229E+02  0.00000000000E+00 0.  1.
         25    2    1    2    0    0  0.88817841970E-15 -0.17763568394E-14  0.77297629992E+01  0.12524001146E+03  0.12500124493E+03 0.  0.
    9000006    2    3    3    0    0 -0.52929869468E+01  0.69282322660E+01  0.19069351254E+02  0.63558547637E+02  0.60000272560E+02 0.  0.
    9000007    2    3    3    0    0  0.52929869468E+01 -0.69282322660E+01 -0.11339588255E+02  0.61681463820E+02  0.60000005033E+02 0.  0.
          5    1    4    4  501    0 -0.13835310838E+02  0.30561388602E+01  0.38601475280E+02  0.41387434138E+02  0.47000000000E+01 0. -1.
         -5    1    4    4    0  501  0.85423238910E+01  0.38720934057E+01 -0.19532124026E+02  0.22171113499E+02  0.47000000000E+01 0. -1.
         12    1    5    5    0    0  0.25749656474E+01  0.10221973485E+02  0.21829885381E+02  0.24241763256E+02  0.00000000000E+00 0.  1.
        -12    1    5    5    0    0  0.27180212995E+01 -0.17150205751E+02 -0.33169473635E+02  0.37439700564E+02  0.00000000000E+00 0.  1.
<mgrwt>
<rscale>  0 0.12500124E+03</rscale>
<asrwt>0</asrwt>
<pdfrwt beam="1">  1       21 0.10228444E-01 0.12500124E+03</pdfrwt>
<pdfrwt beam="2">  1       21 0.90392499E-02 0.12500124E+03</pdfrwt>
<totfact> 0.74008814E+06</totfact>
</mgrwt>
</event>
<event>
 9    1  0.4541185E-002  0.1250000E+03  0.7818608E-02  0.1235069E+00
         21   -1    0    0  503  502  0.00000000000E+00  0.00000000000E+00  0.13821108996E+03  0.13821108996E+03  0.00000000000E+00 0.  1.
         21   -1    0    0  502  503 -0.00000000000E+00 -0.00000000000E+00 -0.28262910289E+02  0.28262910289E+02  0.00000000000E+00 0.  1.
         25    2    1    2    0    0  0.00000000000E+00  0.35527136788E-14  0.10994817967E+03  0.16647400025E+03  0.12499996218E+03 0.  0.
    9000006    2    3    3    0    0 -0.11052352756E+02  0.43636818787E+01  0.37863251721E+02  0.71935968809E+02  0.59999679638E+02 0.  0.
    9000007    2    3    3    0    0  0.11052352756E+02 -0.43636818787E+01  0.72084927949E+02  0.94538031437E+02  0.60000052747E+02 0.  0.
          5    1    4    4  501    0 -0.86921370668E+01 -0.26699265206E+02  0.25064306630E+02  0.37930376694E+02  0.47000000000E+01 0. -1.
         -5    1    4    4    0  501 -0.23602156896E+01  0.31062947084E+02  0.12798945090E+02  0.34005592115E+02  0.47000000000E+01 0. -1.
         12    1    5    5    0    0  0.58953099536E+01  0.27589349154E+02  0.40134102539E+02  0.49057854140E+02  0.00000000000E+00 0. -1.
        -12    1    5    5    0    0  0.51570428028E+01 -0.31953031033E+02  0.31950825409E+02  0.45480177297E+02  0.00000000000E+00 0. -1.
<mgrwt>
<rscale>  0 0.12499996E+03</rscale>
<asrwt>0</asrwt>
<pdfrwt beam="1">  1       21 0.21263244E-01 0.12499996E+03</pdfrwt>
<pdfrwt beam="2">  1       21 0.43481401E-02 0.12499996E+03</pdfrwt>
<totfact> 0.68737035E+06</totfact>
</mgrwt>
</event>
<event>
 9    1  0.4541185E-002  0.1249907E+03  0.7818608E-02  0.1235084E+00
         21   -1    0    0  503  502  0.00000000000E+00  0.00000000000E+00  0.41535251264E+03  0.41535251264E+03  0.00000000000E+00 0. -1.
         21   -1    0    0  502  503 -0.00000000000E+00 -0.00000000000E+00 -0.94032604941E+01  0.94032604941E+01  0.00000000000E+00 0. -1.
         25    2    1    2    0    0  0.22204460493E-14  0.00000000000E+00  0.40594925214E+03  0.42475577313E+03  0.12499068562E+03 0.  0.
    9000006    2    3    3    0    0 -0.35482634501E+01 -0.94644766856E+01  0.15449504127E+03  0.16604442706E+03  0.59998895723E+02 0.  0.
    9000007    2    3    3    0    0  0.35482634501E+01  0.94644766856E+01  0.25145421088E+03  0.25871134608E+03  0.60001449383E+02 0.  0.
          5    1    4    4  501    0 -0.44834752875E+01  0.20809473383E+02  0.10919103411E+03  0.11134589199E+03  0.47000000000E+01 0.  1.
         -5    1    4    4    0  501  0.93521183740E+00 -0.30273950068E+02  0.45304007158E+02  0.54698535067E+02  0.47000000000E+01 0.  1.
         12    1    5    5    0    0  0.23280695988E+02  0.26138781174E+02  0.14693108274E+03  0.15104294012E+03  0.00000000000E+00 0. -1.
        -12    1    5    5    0    0 -0.19732432538E+02 -0.16674304489E+02  0.10452312814E+03  0.10766840595E+03  0.00000000000E+00 0. -1.
<mgrwt>
<rscale>  0 0.12499069E+03</rscale>
<asrwt>0</asrwt>
<pdfrwt beam="1">  1       21 0.63900372E-01 0.12499069E+03</pdfrwt>
<pdfrwt beam="2">  1       21 0.14466558E-02 0.12499069E+03</pdfrwt>
<totfact> 0.46452343E+06</totfact>
</mgrwt>
</event>
<event>
 9    1  0.4541185E-002  0.1249996E+03  0.7818608E-02  0.1235070E+00
         21   -1    0    0  503  502  0.00000000000E+00  0.00000000000E+00  0.22154378178E+02  0.22154378178E+02  0.00000000000E+00 0.  1.
         21   -1    0    0  502  503 -0.00000000000E+00 -0.00000000000E+00 -0.17631852360E+03  0.17631852360E+03  0.00000000000E+00 0.  1.
         25    2    1    2    0    0 -0.88817841970E-15 -0.17763568394E-14 -0.15416414542E+03  0.19847290178E+03  0.12499963602E+03 0.  0.
    9000006    2    3    3    0    0 -0.55159677356E+01 -0.81520026230E+01 -0.10004770418E+03  0.11707570246E+03  0.60002466196E+02 0.  0.
    9000007    2    3    3    0    0  0.55159677356E+01  0.81520026230E+01 -0.54116441246E+02  0.81397199313E+02  0.60000281634E+02 0.  0.
          5    1    4    4  501    0  0.12084971366E+02  0.20958438489E+02 -0.28259804490E+02  0.37496789551E+02  0.47000000000E+01 0. -1.
         -5    1    4    4    0  501 -0.17600939102E+02 -0.29110441112E+02 -0.71787899686E+02  0.79578912912E+02  0.47000000000E+01 0. -1.
         12    1    5    5    0    0 -0.38609267056E+01  0.15341654857E+02  0.83048591943E+01  0.17867395306E+02  0.00000000000E+00 0.  1.
        -12    1    5    5    0    0  0.93768944412E+01 -0.71896522341E+01 -0.62421300440E+02  0.63529804008E+02  0.00000000000E+00 0.  1.
<mgrwt>
<rscale>  0 0.12499964E+03</rscale>
<asrwt>0</asrwt>
<pdfrwt beam="1">  1       21 0.34083658E-02 0.12499964E+03</pdfrwt>
<pdfrwt beam="2">  1       21 0.27125927E-01 0.12499964E+03</pdfrwt>
<totfact> 0.65093513E+06</totfact>
</mgrwt>
</event>
<event>
 9    1  0.4541185E-002  0.1250005E+03  0.7818608E-02  0.1235069E+00
         21   -1    0    0  503  502  0.00000000000E+00  0.00000000000E+00  0.22497410441E+03  0.22497410441E+03  0.00000000000E+00 0.  1.
         21   -1    0    0  502  503 -0.00000000000E+00 -0.00000000000E+00 -0.17363235527E+02  0.17363235527E+02  0.00000000000E+00 0.  1.
         25    2    1    2    0    0 -0.17763568394E-14  0.17763568394E-14  0.20761086889E+03  0.24233733994E+03  0.12500045380E+03 0.  0.
    9000006    2    3    3    0    0 -0.27615432938E+01  0.71433077923E+01  0.13431070291E+03  0.14730246319E+03  0.59999981480E+02 0.  0.
    9000007    2    3    3    0    0  0.27615432938E+01 -0.71433077923E+01  0.73300165975E+02  0.95034876750E+02  0.60000504160E+02 0.  0.
          5    1    4    4  501    0 -0.13652216816E+02  0.29654886850E+02  0.56337985589E+02  0.65282876456E+02  0.47000000000E+01 0.  1.
         -5    1    4    4    0  501  0.10890673523E+02 -0.22511579058E+02  0.77972717322E+02  0.82019586734E+02  0.47000000000E+01 0.  1.
         12    1    5    5    0    0 -0.26521919219E+02  0.17348396854E+01  0.18880163535E+02  0.32601877904E+02  0.00000000000E+00 0.  1.
        -12    1    5    5    0    0  0.29283462512E+02 -0.88781474777E+01  0.54420002439E+02  0.62432998846E+02  0.00000000000E+00 0.  1.
<mgrwt>
<rscale>  0 0.12500045E+03</rscale>
<asrwt>0</asrwt>
<pdfrwt beam="1">  1       21 0.34611399E-01 0.12500045E+03</pdfrwt>
<pdfrwt beam="2">  1       21 0.26712672E-02 0.12500045E+03</pdfrwt>
<totfact> 0.60606521E+06</totfact>
</mgrwt>
</event>
<event>
 9    1  0.4541185E-002  0.1250252E+03  0.7818608E-02  0.1235030E+00
         21   -1    0    0  503  502  0.00000000000E+00  0.00000000000E+00  0.73522697869E+01  0.73522697869E+01  0.00000000000E+00 0.  1.
         21   -1    0    0  502  503 -0.00000000000E+00 -0.00000000000E+00 -0.53151268545E+03  0.53151268545E+03  0.00000000000E+00 0.  1.
         25    2    1    2    0    0  0.00000000000E+00 -0.35527136788E-14 -0.52416041566E+03  0.53886495524E+03  0.12502519200E+03 0.  0.
    9000006    2    3    3    0    0  0.63197850288E+01 -0.16356176321E+02 -0.26438618858E+03  0.27167569651E+03  0.60001359782E+02 0.  0.
    9000007    2    3    3    0    0 -0.63197850288E+01  0.16356176321E+02 -0.25977422708E+03  0.26718925872E+03  0.59999889464E+02 0.  0.
          5    1    4    4  501    0 -0.72256086480E+01 -0.36202552831E+02 -0.18014251029E+03  0.18394631898E+03  0.47000000000E+01 0.  1.
         -5    1    4    4    0  501  0.13545393677E+02  0.19846376510E+02 -0.84243678291E+02  0.87729377533E+02  0.47000000000E+01 0.  1.
         12    1    5    5    0    0 -0.12888796094E+02  0.29714367695E+02 -0.73486568662E+02  0.80307785961E+02  0.00000000000E+00 0. -1.
        -12    1    5    5    0    0  0.65690110651E+01 -0.13358191374E+02 -0.18628765842E+03  0.18688147276E+03  0.00000000000E+00 0. -1.
<mgrwt>
<rscale>  0 0.12502519E+03</rscale>
<asrwt>0</asrwt>
<pdfrwt beam="1">  1       21 0.11311184E-02 0.12502519E+03</pdfrwt>
<pdfrwt beam="2">  1       21 0.81771185E-01 0.12502519E+03</pdfrwt>
<totfact> 0.39986777E+06</totfact>
</mgrwt>
</event>
<event>
 9    1  0.4541185E-002  0.1249998E+03  0.7818608E-02  0.1235070E+00
         21   -1    0    0  503  502  0.00000000000E+00  0.00000000000E+00  0.26437444581E+02  0.26437444581E+02  0.00000000000E+00 0.  1.
         21   -1    0    0  502  503 -0.00000000000E+00 -0.00000000000E+00 -0.14775401050E+03  0.14775401050E+03  0.00000000000E+00 0.  1.
         25    2    1    2    0    0  0.00000000000E+00  0.00000000000E+00 -0.12131656591E+03  0.17419145508E+03  0.12499981543E+03 0.  0.
    9000006    2    3    3    0    0 -0.98406523272E+01 -0.11651258648E+01 -0.80759843695E+02  0.10109507362E+03  0.59998879991E+02 0.  0.
    9000007    2    3    3    0    0  0.98406523272E+01  0.11651258648E+01 -0.40556722219E+02  0.73096381456E+02  0.60000310902E+02 0.  0.
          5    1    4    4  501    0  0.44630317532E+01  0.14343721638E+02 -0.77683664621E+02  0.79262240391E+02  0.47000000000E+01 0. -1.
         -5    1    4    4    0  501 -0.14303684080E+02 -0.15508847503E+02 -0.30761790744E+01  0.21832833230E+02  0.47000000000E+01 0. -1.
         12    1    5    5    0    0  0.11724705155E+02 -0.28324181510E+02 -0.25800569369E+02  0.40067410060E+02  0.00000000000E+00 0.  1.
        -12    1    5    5    0    0 -0.18840528274E+01  0.29489307375E+02 -0.14756152850E+02  0.33028971395E+02  0.00000000000E+00 0.  1.
<mgrwt>
<rscale>  0 0.12499982E+03</rscale>
<asrwt>0</asrwt>
<pdfrwt beam="1">  1       21 0.40672991E-02 0.12499982E+03</pdfrwt>
<pdfrwt beam="2">  1       21 0.22731386E-01 0.12499982E+03</pdfrwt>
<totfact> 0.67824521E+06</totfact>
</mgrwt>
</event>
<event>
 9    1  0.4541185E-002  0.1249889E+03  0.7818608E-02  0.1235087E+00
         21   -1    0    0  503  502  0.00000000000E+00  0.00000000000E+00  0.42643612426E+01  0.42643612426E+01  0.00000000000E+00 0.  1.
         21   -1    0    0  502  503 -0.00000000000E+00 -0.00000000000E+00 -0.91585999682E+03  0.91585999682E+03  0.00000000000E+00 0.  1.
         25    2    1    2    0    0 -0.55511151231E-15  0.00000000000E+00 -0.91159563557E+03  0.92012435806E+03  0.12498892549E+03 0.  0.
    9000006    2    3    3    0    0 -0.75896374041E+00  0.16756562846E+01 -0.58375083050E+03  0.58682912502E+03  0.60000050049E+02 0.  0.
    9000007    2    3    3    0    0  0.75896374041E+00 -0.16756562846E+01 -0.32784480507E+03  0.33329523304E+03  0.60000935879E+02 0.  0.
          5    1    4    4  501    0  0.96002873594E+00  0.25570038098E+02 -0.45753084167E+03  0.45826990910E+03  0.47000000000E+01 0.  1.
         -5    1    4    4    0  501 -0.17189924763E+01 -0.23894381813E+02 -0.12621998883E+03  0.12855921592E+03  0.47000000000E+01 0.  1.
         12    1    5    5    0    0 -0.11611620748E+02  0.25306210881E+02 -0.11150585935E+03  0.11492950324E+03  0.00000000000E+00 0.  1.
        -12    1    5    5    0    0  0.12370584489E+02 -0.26981867165E+02 -0.21633894572E+03  0.21836572980E+03  0.00000000000E+00 0.  1.
<mgrwt>
<rscale>  0 0.12498893E+03</rscale>
<asrwt>0</asrwt>
<pdfrwt beam="1">  1       21 0.65605541E-03 0.12498893E+03</pdfrwt>
<pdfrwt beam="2">  1       21 0.14090157E+00 0.12498893E+03</pdfrwt>
<totfact> 0.25735725E+06</totfact>
</mgrwt>
</event>
<event>
 9    1  0.4541185E-002  0.1249991E+03  0.7818608E-02  0.1235071E+00
         21   -1    0    0  503  502  0.00000000000E+00  0.00000000000E+00  0.13332927445E+02  0.13332927445E+02  0.00000000000E+00 0. -1.
         21   -1    0    0  502  503 -0.00000000000E+00 -0.00000000000E+00 -0.29297360369E+03  0.29297360369E+03  0.00000000000E+00 0. -1.
         25    2    1    2    0    0 -0.88817841970E-15  0.17763568394E-14 -0.27964067624E+03  0.30630653114E+03  0.12499913282E+03 0.  0.
    9000006    2    3    3    0    0 -0.68953071651E+01  0.13451739004E+02 -0.16142911499E+03  0.17288092144E+03  0.59999660737E+02 0.  0.
    9000007    2    3    3    0    0  0.68953071651E+01 -0.13451739004E+02 -0.11821156126E+03  0.13342560970E+03  0.59999379705E+02 0.  0.
          5    1    4    4  501    0 -0.22914215504E+01  0.62439141327E+01 -0.16281976016E+03  0.16302331544E+03  0.47000000000E+01 0.  1.
         -5    1    4    4    0  501 -0.46038856147E+01  0.72078248708E+01  0.13906451734E+01  0.98576060035E+01  0.47000000000E+01 0.  1.
         12    1    5    5    0    0  0.67414514681E+01 -0.15109117289E+01  0.56898106827E+01  0.89500819971E+01  0.00000000000E+00 0. -1.
        -12    1    5    5    0    0  0.15385569699E+00 -0.11940827275E+02 -0.12390137194E+03  0.12447552770E+03  0.00000000000E+00 0. -1.
<mgrwt>
<rscale>  0 0.12499913E+03</rscale>
<asrwt>0</asrwt>
<pdfrwt beam="1">  1       21 0.20512198E-02 0.12499913E+03</pdfrwt>
<pdfrwt beam="2">  1       21 0.45072857E-01 0.12499913E+03</pdfrwt>
<totfact> 0.54937314E+06</totfact>
</mgrwt>
</event>
<event>
 9    1  0.4541185E-002  0.1250334E+03  0.7818608E-02  0.1235017E+00
         21   -1    0    0  503  502  0.00000000000E+00  0.00000000000E+00  0.14904263679E+02  0.14904263679E+02  0.00000000000E+00 0. -1.
         21   -1    0    0  502  503 -0.00000000000E+00 -0.00000000000E+00 -0.26222949122E+03  0.26222949122E+03  0.00000000000E+00 0. -1.
         25    2    1    2    0    0  0.17763568394E-14  0.00000000000E+00 -0.24732522755E+03  0.27713375490E+03  0.12503339524E+03 0.  0.
    9000006    2    3    3    0    0 -0.88328858477E+01 -0.12809307589E+02 -0.14170492506E+03  0.15466845936E+03  0.59999569184E+02 0.  0.
    9000007    2    3    3    0    0  0.88328858477E+01  0.12809307589E+02 -0.10562030249E+03  0.12246529554E+03  0.60000017344E+02 0.  0.
          5    1    4    4  501    0  0.88593333993E+01  0.19646397915E+02 -0.75962518279E+02  0.79100334529E+02  0.47000000000E+01 0.  1.
         -5    1    4    4    0  501 -0.17692219247E+02 -0.32455705503E+02 -0.65742406778E+02  0.75568124831E+02  0.47000000000E+01 0.  1.
         12    1    5    5    0    0 -0.11356144399E+02  0.25132269014E+02 -0.21175785261E+02  0.34770775701E+02  0.00000000000E+00 0. -1.
        -12    1    5    5    0    0  0.20189030246E+02 -0.12322961425E+02 -0.84444517227E+02  0.87694519842E+02  0.00000000000E+00 0. -1.
<mgrwt>
<rscale>  0 0.12503340E+03</rscale>
<asrwt>0</asrwt>
<pdfrwt beam="1">  1       21 0.22929640E-02 0.12503340E+03</pdfrwt>
<pdfrwt beam="2">  1       21 0.40342992E-01 0.12503340E+03</pdfrwt>
<totfact> 0.57363434E+06</totfact>
</mgrwt>
</event>
<event>
 9    1  0.4541185E-002  0.1249956E+03  0.7818608E-02  0.1235076E+00
         21   -1    0    0  503  502  0.00000000000E+00  0.00000000000E+00  0.20665791108E+02  0.20665791108E+02  0.00000000000E+00 0.  1.
         21   -1    0    0  502  503 -0.00000000000E+00 -0.00000000000E+00 -0.18900671814E+03  0.18900671814E+03  0.00000000000E+00 0.  1.
         25    2    1    2    0    0  0.00000000000E+00  0.00000000000E+00 -0.16834092703E+03  0.20967250925E+03  0.12499557360E+03 0.  0.
    9000006    2    3    3    0    0  0.13742850213E+02  0.15078251202E+01 -0.10214365143E+03  0.11926644669E+03  0.60000169257E+02 0.  0.
    9000007    2    3    3    0    0 -0.13742850213E+02 -0.15078251202E+01 -0.66197275600E+02  0.90406062553E+02  0.60000311506E+02 0.  0.
          5    1    4    4  501    0 -0.22985905283E+02  0.36336198723E+01 -0.49143834812E+02  0.54578031616E+02  0.47000000000E+01 0.  1.
         -5    1    4    4    0  501  0.36728755496E+02 -0.21257947522E+01 -0.52999816619E+02  0.64688415078E+02  0.47000000000E+01 0.  1.
         12    1    5    5    0    0  0.23422730568E+02  0.46838358967E+01 -0.26408238987E+02  0.35608393847E+02  0.00000000000E+00 0. -1.
        -12    1    5    5    0    0 -0.37165580781E+02 -0.61916610168E+01 -0.39789036613E+02  0.54797668706E+02  0.00000000000E+00 0. -1.
<mgrwt>
<rscale>  0 0.12499557E+03</rscale>
<asrwt>0</asrwt>
<pdfrwt beam="1">  1       21 0.31793525E-02 0.12499557E+03</pdfrwt>
<pdfrwt beam="2">  1       21 0.29077956E-01 0.12499557E+03</pdfrwt>
<totfact> 0.63901162E+06</totfact>
</mgrwt>
</event>
<event>
 9    1  0.4541185E-002  0.1249957E+03  0.7818608E-02  0.1235076E+00
         21   -1    0    0  503  502  0.00000000000E+00  0.00000000000E+00  0.30827566334E+02  0.30827566334E+02  0.00000000000E+00 0.  1.
         21   -1    0    0  502  503 -0.00000000000E+00 -0.00000000000E+00 -0.12670416255E+03  0.12670416255E+03  0.00000000000E+00 0.  1.
         25    2    1    2    0    0  0.00000000000E+00  0.00000000000E+00 -0.95876596212E+02  0.15753172888E+03  0.12499569554E+03 0.  0.
    9000006    2    3    3    0    0 -0.11307710167E+02 -0.85118433952E+01 -0.34980404440E+02  0.70879664426E+02  0.59999852893E+02 0.  0.
    9000007    2    3    3    0    0  0.11307710167E+02  0.85118433952E+01 -0.60896191773E+02  0.86652064454E+02  0.59999319283E+02 0.  0.
          5    1    4    4  501    0 -0.11006440529E+02 -0.11651004926E+02 -0.51118376209E+02  0.53777932604E+02  0.47000000000E+01 0.  1.
         -5    1    4    4    0  501 -0.30126963832E+00  0.31391615311E+01  0.16137971769E+02  0.17101731823E+02  0.47000000000E+01 0.  1.
         12    1    5    5    0    0  0.65640649613E+01 -0.22385216824E+02 -0.46943878042E+02  0.52420535735E+02  0.00000000000E+00 0.  1.
        -12    1    5    5    0    0  0.47436452060E+01  0.30897060219E+02 -0.13952313730E+02  0.34231528719E+02  0.00000000000E+00 0.  1.
<mgrwt>
<rscale>  0 0.12499570E+03</rscale>
<asrwt>0</asrwt>
<pdfrwt beam="1">  1       21 0.47427026E-02 0.12499570E+03</pdfrwt>
<pdfrwt beam="2">  1       21 0.19492948E-01 0.12499570E+03</pdfrwt>
<totfact> 0.69830000E+06</totfact>
</mgrwt>
</event>
<event>
 9    1  0.4541185E-002  0.1250019E+03  0.7818608E-02  0.1235066E+00
         21   -1    0    0  503  502  0.00000000000E+00  0.00000000000E+00  0.76495819220E+02  0.76495819220E+02  0.00000000000E+00 0.  1.
         21   -1    0    0  502  503 -0.00000000000E+00 -0.00000000000E+00 -0.51066471766E+02  0.51066471766E+02  0.00000000000E+00 0.  1.
         25    2    1    2    0    0  0.00000000000E+00  0.88817841970E-15  0.25429347454E+02  0.12756229099E+03  0.12500194546E+03 0.  0.
    9000006    2    3    3    0    0  0.16979794425E+02 -0.25110382030E+01  0.16336224104E+02  0.64504256442E+02  0.59994234304E+02 0.  0.
    9000007    2    3    3    0    0 -0.16979794425E+02  0.25110382030E+01  0.90931233500E+01  0.63058034543E+02  0.59991766907E+02 0.  0.
          5    1    4    4  501    0 -0.93404246562E+01  0.23429170171E+01  0.31578957336E+02  0.33347463762E+02  0.47000000000E+01 0.  1.
         -5    1    4    4    0  501  0.26320219081E+02 -0.48539552201E+01 -0.15242733233E+02  0.31156792681E+02  0.47000000000E+01 0.  1.
         12    1    5    5    0    0 -0.20509190241E+02  0.93026996221E+01 -0.21732452788E+02  0.31296431247E+02  0.00000000000E+00 0. -1.
        -12    1    5    5    0    0  0.35293958167E+01 -0.67916614191E+01  0.30825576138E+02  0.31761603296E+02  0.00000000000E+00 0. -1.
<mgrwt>
<rscale>  0 0.12500195E+03</rscale>
<asrwt>0</asrwt>
<pdfrwt beam="1">  1       21 0.11768588E-01 0.12500195E+03</pdfrwt>
<pdfrwt beam="2">  1       21 0.78563803E-02 0.12500195E+03</pdfrwt>
<totfact> 0.73689116E+06</totfact>
</mgrwt>
</event>
<event>
 9    1  0.4541185E-002  0.1250020E+03  0.7818608E-02  0.1235066E+00
         21   -1    0    0  503  502  0.00000000000E+00  0.00000000000E+00  0.33310295855E+03  0.33310295855E+03  0.00000000000E+00 0.  1.
         21   -1    0    0  502  503 -0.00000000000E+00 -0.00000000000E+00 -0.11727234011E+02  0.11727234011E+02  0.00000000000E+00 0.  1.
         25    2    1    2    0    0 -0.17763568394E-14  0.00000000000E+00  0.32137572454E+03  0.34483019256E+03  0.12500202150E+03 0.  0.
    9000006    2    3    3    0    0 -0.22066224963E+01  0.17007141977E+02  0.17034858649E+03  0.18141876341E+03  0.60000122793E+02 0.  0.
    9000007    2    3    3    0    0  0.22066224963E+01 -0.17007141977E+02  0.15102713805E+03  0.16341142915E+03  0.59999889087E+02 0.  0.
          5    1    4    4  501    0  0.26127712828E+02  0.14444857319E+02  0.11625771514E+03  0.12012184485E+03  0.47000000000E+01 0.  1.
         -5    1    4    4    0  501 -0.28334335325E+02  0.25622846589E+01  0.54090871354E+02  0.61296918558E+02  0.47000000000E+01 0.  1.
         12    1    5    5    0    0 -0.82456642549E+01 -0.93515061871E+01  0.14988774885E+03  0.15040538189E+03  0.00000000000E+00 0. -1.
        -12    1    5    5    0    0  0.10452286751E+02 -0.76556357904E+01  0.11393891996E+01  0.13006047264E+02  0.00000000000E+00 0. -1.
<mgrwt>
<rscale>  0 0.12500202E+03</rscale>
<asrwt>0</asrwt>
<pdfrwt beam="1">  1       21 0.51246602E-01 0.12500202E+03</pdfrwt>
<pdfrwt beam="2">  1       21 0.18041901E-02 0.12500202E+03</pdfrwt>
<totfact> 0.51919890E+06</totfact>
</mgrwt>
</event>
<event>
 9    1  0.4541185E-002  0.1249999E+03  0.7818608E-02  0.1235069E+00
         21   -1    0    0  503  502  0.00000000000E+00  0.00000000000E+00  0.13055598956E+03  0.13055598956E+03  0.00000000000E+00 0.  1.
         21   -1    0    0  502  503 -0.00000000000E+00 -0.00000000000E+00 -0.29920086000E+02  0.29920086000E+02  0.00000000000E+00 0.  1.
         25    2    1    2    0    0  0.00000000000E+00 -0.17763568394E-14  0.10063590356E+03  0.16047607556E+03  0.12499994297E+03 0.  0.
    9000006    2    3    3    0    0 -0.11922067934E+02  0.51077738577E+01  0.35229437789E+02  0.70775474152E+02  0.59998578290E+02 0.  0.
    9000007    2    3    3    0    0  0.11922067934E+02 -0.51077738577E+01  0.65406465772E+02  0.89700601411E+02  0.59999725591E+02 0.  0.
          5    1    4    4  501    0 -0.29572044783E+02  0.15960669708E+02  0.57150119619E+01  0.34409303566E+02  0.47000000000E+01 0. -1.
         -5    1    4    4    0  501  0.17649976849E+02 -0.10852895850E+02  0.29514425827E+02  0.36366170585E+02  0.47000000000E+01 0. -1.
         12    1    5    5    0    0  0.31449517560E+02 -0.11968737107E+02  0.18429813426E+02  0.38366402563E+02  0.00000000000E+00 0.  1.
        -12    1    5    5    0    0 -0.19527449627E+02  0.68609632495E+01  0.46976652346E+02  0.51334198847E+02  0.00000000000E+00 0.  1.
<mgrwt>
<rscale>  0 0.12499994E+03</rscale>
<asrwt>0</asrwt>
<pdfrwt beam="1">  1       21 0.20085537E-01 0.12499994E+03</pdfrwt>
<pdfrwt beam="2">  1       21 0.46030902E-02 0.12499994E+03</pdfrwt>
<totfact> 0.69461472E+06</totfact>
</mgrwt>
</event>
<event>
 9    1  0.4541185E-002  0.1250000E+03  0.7818608E-02  0.1235069E+00
         21   -1    0    0  503  502  0.00000000000E+00  0.00000000000E+00  0.31201514717E+03  0.31201514717E+03  0.00000000000E+00 0.  1.
         21   -1    0    0  502  503 -0.00000000000E+00 -0.00000000000E+00 -0.12519432095E+02  0.12519432095E+02  0.00000000000E+00 0.  1.
         25    2    1    2    0    0  0.00000000000E+00 -0.44408920985E-15  0.29949571507E+03  0.32453457926E+03  0.12500003916E+03 0.  0.
    9000006    2    3    3    0    0  0.10888947844E+02  0.15296186265E+01  0.18510286582E+03  0.19489473759E+03  0.59999824068E+02 0.  0.
    9000007    2    3    3    0    0 -0.10888947844E+02 -0.15296186265E+01  0.11439284926E+03  0.12963984167E+03  0.59998797237E+02 0.  0.
          5    1    4    4  501    0 -0.62596208546E+01  0.11809541893E+02  0.16674993820E+03  0.16735076942E+03  0.47000000000E+01 0.  1.
         -5    1    4    4    0  501  0.17148568699E+02 -0.10279923266E+02  0.18352927611E+02  0.27543968172E+02  0.47000000000E+01 0.  1.
         12    1    5    5    0    0 -0.27744881674E+02 -0.52301118875E+01  0.22394064853E+02  0.36036463063E+02  0.00000000000E+00 0. -1.
        -12    1    5    5    0    0  0.16855933830E+02  0.37004932609E+01  0.91998784404E+02  0.93603378611E+02  0.00000000000E+00 0. -1.
<mgrwt>
<rscale>  0 0.12500004E+03</rscale>
<asrwt>0</asrwt>
<pdfrwt beam="1">  1       21 0.48002325E-01 0.12500004E+03</pdfrwt>
<pdfrwt beam="2">  1       21 0.19260667E-02 0.12500004E+03</pdfrwt>
<totfact> 0.53475895E+06</totfact>
</mgrwt>
</event>
<event>
 9    1  0.4541185E-002  0.1250014E+03  0.7818608E-02  0.1235067E+00
         21   -1    0    0  503  502  0.00000000000E+00  0.00000000000E+00  0.22596624243E+03  0.22596624243E+03  0.00000000000E+00 0.  1.
         21   -1    0    0  502  503 -0.00000000000E+00 -0.00000000000E+00 -0.17287256376E+02  0.17287256376E+02  0.00000000000E+00 0.  1.
         25    2    1    2    0    0  0.00000000000E+00  0.17763568394E-14  0.20867898605E+03  0.24325349880E+03  0.12500138183E+03 0.  0.
    9000006    2    3    3    0    0 -0.14769943873E+02  0.86573119682E+01  0.11141869922E+03  0.12769974797E+03  0.59999990022E+02 0.  0.
    9000007    2    3    3    0    0  0.14769943873E+02 -0.86573119682E+01  0.97260286832E+02  0.11555375084E+03  0.60000047042E+02 0.  0.
          5    1    4    4  501    0  0.18834073273E+02  0.89521560100E+01  0.16823341179E+02  0.27202540722E+02  0.47000000000E+01 0. -1.
         -5    1    4    4    0  501 -0.33604017146E+02 -0.29484404180E+00  0.94595358039E+02  0.10049720724E+03  0.47000000000E+01 0. -1.
         12    1    5    5    0    0 -0.13062449656E+02 -0.24739459257E+02  0.30078535848E+02  0.41077813404E+02  0.00000000000E+00 0.  1.
        -12    1    5    5    0    0  0.27832393529E+02  0.16082147289E+02  0.67181750984E+02  0.74475937431E+02  0.00000000000E+00 0.  1.
<mgrwt>
<rscale>  0 0.12500138E+03</rscale>
<asrwt>0</asrwt>
<pdfrwt beam="1">  1       21 0.34764035E-01 0.12500138E+03</pdfrwt>
<pdfrwt beam="2">  1       21 0.26595781E-02 0.12500138E+03</pdfrwt>
<totfact> 0.60517134E+06</totfact>
</mgrwt>
</event>
<event>
 9    1  0.4541185E-002  0.1250029E+03  0.7818608E-02  0.1235065E+00
         21   -1    0    0  503  502  0.00000000000E+00  0.00000000000E+00  0.11104874833E+03  0.11104874833E+03  0.00000000000E+00 0.  1.
         21   -1    0    0  502  503 -0.00000000000E+00 -0.00000000000E+00 -0.35177634711E+02  0.35177634711E+02  0.00000000000E+00 0.  1.
         25    2    1    2    0    0 -0.17763568394E-14  0.00000000000E+00  0.75871113615E+02  0.14622638304E+03  0.12500291683E+03 0.  0.
    9000006    2    3    3    0    0 -0.28990532274E+01 -0.12298097583E+02  0.52109839054E+02  0.80467619265E+02  0.59999622583E+02 0.  0.
    9000007    2    3    3    0    0  0.28990532274E+01  0.12298097583E+02  0.23761274561E+02  0.65758763773E+02  0.59999742752E+02 0.  0.
          5    1    4    4  501    0 -0.17190383126E+02 -0.21478441427E+02  0.27364905151E+01  0.28043022278E+02  0.47000000000E+01 0. -1.
         -5    1    4    4    0  501  0.14291329898E+02  0.91803438435E+01  0.49373348539E+02  0.52424596987E+02  0.47000000000E+01 0. -1.
         12    1    5    5    0    0  0.13790505644E+02  0.29484241400E+02  0.30215889925E+02  0.44412819555E+02  0.00000000000E+00 0. -1.
        -12    1    5    5    0    0 -0.10891452417E+02 -0.17186143817E+02 -0.64546153638E+01  0.21345944217E+02  0.00000000000E+00 0. -1.
<mgrwt>
<rscale>  0 0.12500292E+03</rscale>
<asrwt>0</asrwt>
<pdfrwt beam="1">  1       21 0.17084423E-01 0.12500292E+03</pdfrwt>
<pdfrwt beam="2">  1       21 0.54119438E-02 0.12500292E+03</pdfrwt>
<totfact> 0.71231229E+06</totfact>
</mgrwt>
</event>
<event>
 9    1  0.4541185E-002  0.1249932E+03  0.7818608E-02  0.1235080E+00
         21   -1    0    0  503  502  0.00000000000E+00  0.00000000000E+00  0.90107819579E+02  0.90107819579E+02  0.00000000000E+00 0.  1.
         21   -1    0    0  502  503 -0.00000000000E+00 -0.00000000000E+00 -0.43346111063E+02  0.43346111063E+02  0.00000000000E+00 0.  1.
         25    2    1    2    0    0  0.35527136788E-14  0.00000000000E+00  0.46761708516E+02  0.13345393064E+03  0.12499317669E+03 0.  0.
    9000006    2    3    3    0    0  0.23328779384E+01 -0.44485088010E+01  0.41264498550E+02  0.72993378191E+02  0.60000357241E+02 0.  0.
    9000007    2    3    3    0    0 -0.23328779384E+01  0.44485088010E+01  0.54972099657E+01  0.60460552450E+02  0.60000229459E+02 0.  0.
          5    1    4    4  501    0  0.23479844537E+02 -0.16106390093E+02  0.38677362883E+02  0.48257095861E+02  0.47000000000E+01 0.  1.
         -5    1    4    4    0  501 -0.21146966599E+02  0.11657881292E+02  0.25871356673E+01  0.24736282330E+02  0.47000000000E+01 0.  1.
         12    1    5    5    0    0 -0.26513148327E+02  0.20697028564E+01  0.18981080596E+02  0.32672804053E+02  0.00000000000E+00 0. -1.
        -12    1    5    5    0    0  0.24180270388E+02  0.23788059446E+01 -0.13483870630E+02  0.27787748397E+02  0.00000000000E+00 0. -1.
<mgrwt>
<rscale>  0 0.12499318E+03</rscale>
<asrwt>0</asrwt>
<pdfrwt beam="1">  1       21 0.13862741E-01 0.12499318E+03</pdfrwt>
<pdfrwt beam="2">  1       21 0.66686325E-02 0.12499318E+03</pdfrwt>
<totfact> 0.72914533E+06</totfact>
</mgrwt>
</event>
<event>
 9    1  0.4541185E-002  0.1249984E+03  0.7818608E-02  0.1235072E+00
         21   -1    0    0  503  502  0.00000000000E+00  0.00000000000E+00  0.21366883135E+02  0.21366883135E+02  0.00000000000E+00 0. -1.
         21   -1    0    0  502  503 -0.00000000000E+00 -0.00000000000E+00 -0.18281328367E+03  0.18281328367E+03  0.00000000000E+00 0. -1.
         25    2    1    2    0    0  0.17763568394E-14  0.00000000000E+00 -0.16144640053E+03  0.20418016680E+03  0.12499840107E+03 0.  0.
    9000006    2    3    3    0    0  0.98115051304E+01  0.14474830092E+02 -0.81715349637E+02  0.10287425554E+03  0.59999397884E+02 0.  0.
    9000007    2    3    3    0    0 -0.98115051304E+01 -0.14474830092E+02 -0.79731050897E+02  0.10130591127E+03  0.60000507014E+02 0.  0.
          5    1    4    4  501    0  0.32700489045E+00  0.22560722405E+02 -0.32371281123E+01  0.23273635858E+02  0.47000000000E+01 0.  1.
         -5    1    4    4    0  501  0.94845002400E+01 -0.80858923130E+01 -0.78478221525E+02  0.79600619677E+02  0.47000000000E+01 0.  1.
         12    1    5    5    0    0 -0.25463793700E+02 -0.22864689952E+02 -0.21473930334E+02  0.40402085592E+02  0.00000000000E+00 0.  1.
        -12    1    5    5    0    0  0.15652288569E+02  0.83898598599E+01 -0.58257120563E+02  0.60903825678E+02  0.00000000000E+00 0.  1.
<mgrwt>
<rscale>  0 0.12499840E+03</rscale>
<asrwt>0</asrwt>
<pdfrwt beam="1">  1       21 0.32872129E-02 0.12499840E+03</pdfrwt>
<pdfrwt beam="2">  1       21 0.28125120E-01 0.12499840E+03</pdfrwt>
<totfact> 0.64479708E+06</totfact>
</mgrwt>
</event>
<event>
 9    1  0.4541185E-002  0.1249998E+03  0.7818608E-02  0.1235070E+00
         21   -1    0    0  503  502  0.00000000000E+00  0.00000000000E+00  0.22534794208E+03  0.22534794208E+03  0.00000000000E+00 0. -1.
         21   -1    0    0  502  503 -0.00000000000E+00 -0.00000000000E+00 -0.17334248598E+02  0.17334248598E+02  0.00000000000E+00 0. -1.
         25    2    1    2    0    0  0.17763568394E-14 -0.35527136788E-14  0.20801369348E+03  0.24268219068E+03  0.12499979598E+03 0.  0.
    9000006    2    3    3    0    0 -0.81431915074E+01  0.15390940239E+02  0.10762141014E+03  0.12444085883E+03  0.59999723469E+02 0.  0.
    9000007    2    3    3    0    0  0.81431915074E+01 -0.15390940239E+02  0.10039228334E+03  0.11824133185E+03  0.59993411249E+02 0.  0.
          5    1    4    4  501    0 -0.22741522479E+02  0.28706488945E+02  0.42869923461E+02  0.56578791872E+02  0.47000000000E+01 0. -1.
         -5    1    4    4    0  501  0.14598330971E+02 -0.13315548706E+02  0.64751486682E+02  0.67862066960E+02  0.47000000000E+01 0. -1.
         12    1    5    5    0    0  0.14612566543E+02 -0.70296220200E+00  0.10112238960E+03  0.10217513854E+03  0.00000000000E+00 0. -1.
        -12    1    5    5    0    0 -0.64693750355E+01 -0.14687978037E+02 -0.73010626315E+00  0.16066193306E+02  0.00000000000E+00 0. -1.
<mgrwt>
<rscale>  0 0.12499980E+03</rscale>
<asrwt>0</asrwt>
<pdfrwt beam="1">  1       21 0.34668912E-01 0.12499980E+03</pdfrwt>
<pdfrwt beam="2">  1       21 0.26668076E-02 0.12499980E+03</pdfrwt>
<totfact> 0.60574387E+06</totfact>
</mgrwt>
</event>
<event>
 9    1  0.4541185E-002  0.1249810E+03  0.7818608E-02  0.1235099E+00
         21   -1    0    0  503  502  0.00000000000E+00  0.00000000000E+00  0.79062821408E+01  0.79062821408E+01  0.00000000000E+00 0. -1.
         21   -1    0    0  502  503 -0.00000000000E+00 -0.00000000000E+00 -0.49391876359E+03  0.49391876359E+03  0.00000000000E+00 0. -1.
         25    2    1    2    0    0  0.00000000000E+00 -0.17763568394E-14 -0.48601248145E+03  0.50182504573E+03  0.12498097615E+03 0.  0.
    9000006    2    3    3    0    0 -0.47510659518E+01  0.88222675726E+01 -0.30043998019E+03  0.30653651208E+03  0.60000387607E+02 0.  0.
    9000007    2    3    3    0    0  0.47510659518E+01 -0.88222675726E+01 -0.18557250126E+03  0.19528853364E+03  0.60000442635E+02 0.  0.
          5    1    4    4  501    0  0.35153072919E+01  0.67627482351E+01 -0.37842137173E+01  0.97212356471E+01  0.47000000000E+01 0.  1.
         -5    1    4    4    0  501 -0.82663732438E+01  0.20595193375E+01 -0.29665576647E+03  0.29681527644E+03  0.47000000000E+01 0.  1.
         12    1    5    5    0    0  0.37790691600E+01 -0.29948447832E+02 -0.15622667374E+03  0.15911619804E+03  0.00000000000E+00 0. -1.
        -12    1    5    5    0    0  0.97199679184E+00  0.21126180260E+02 -0.29345827518E+02  0.36172335601E+02  0.00000000000E+00 0. -1.
<mgrwt>
<rscale>  0 0.12498098E+03</rscale>
<asrwt>0</asrwt>
<pdfrwt beam="1">  1       21 0.12163514E-02 0.12498098E+03</pdfrwt>
<pdfrwt beam="2">  1       21 0.75987484E-01 0.12498098E+03</pdfrwt>
<totfact> 0.41965147E+06</totfact>
</mgrwt>
</event>
<event>
 9    1  0.4541185E-002  0.1249986E+03  0.7818608E-02  0.1235072E+00
         21   -1    0    0  503  502  0.00000000000E+00  0.00000000000E+00  0.11330303282E+04  0.11330303282E+04  0.00000000000E+00 0.  1.
         21   -1    0    0  502  503 -0.00000000000E+00 -0.00000000000E+00 -0.34475343099E+01  0.34475343099E+01  0.00000000000E+00 0.  1.
         25    2    1    2    0    0  0.17763568394E-14 -0.44408920985E-15  0.11295827938E+04  0.11364778625E+04  0.12499857488E+03 0.  0.
    9000006    2    3    3    0    0  0.23664407842E+01 -0.59355863751E+00  0.72237643815E+03  0.72486807375E+03  0.60000446619E+02 0.  0.
    9000007    2    3    3    0    0 -0.23664407842E+01  0.59355863751E+00  0.40720635570E+03  0.41160978872E+03  0.59997080707E+02 0.  0.
          5    1    4    4  501    0  0.11896394822E+02  0.23983846168E+01  0.69785559391E+03  0.69797693114E+03  0.47000000000E+01 0.  1.
         -5    1    4    4    0  501 -0.95299540375E+01 -0.29919432543E+01  0.24520844237E+02  0.26891142603E+02  0.47000000000E+01 0.  1.
         12    1    5    5    0    0  0.32067786047E+01 -0.59775752143E+01  0.40083819812E+03  0.40089559228E+03  0.00000000000E+00 0. -1.
        -12    1    5    5    0    0 -0.55732193889E+01  0.65711338518E+01  0.63681575799E+01  0.10714196443E+02  0.00000000000E+00 0. -1.
<mgrwt>
<rscale>  0 0.12499857E+03</rscale>
<asrwt>0</asrwt>
<pdfrwt beam="1">  1       21 0.17431206E+00 0.12499857E+03</pdfrwt>
<pdfrwt beam="2">  1       21 0.53039080E-03 0.12499857E+03</pdfrwt>
<totfact> 0.20457714E+06</totfact>
</mgrwt>
</event>
<event>
 9    1  0.4541185E-002  0.1250020E+03  0.7818608E-02  0.1235066E+00
         21   -1    0    0  503  502  0.00000000000E+00  0.00000000000E+00  0.50978724916E+02  0.50978724916E+02  0.00000000000E+00 0. -1.
         21   -1    0    0  502  503 -0.00000000000E+00 -0.00000000000E+00 -0.76627504201E+02  0.76627504201E+02  0.00000000000E+00 0. -1.
         25    2    1    2    0    0  0.35527136788E-14  0.00000000000E+00 -0.25648779285E+02  0.12760622912E+03  0.12500195931E+03 0.  0.
    9000006    2    3    3    0    0  0.63754550218E+01 -0.16777061341E+01 -0.29377674748E+02  0.67129105826E+02  0.59998399569E+02 0.  0.
    9000007    2    3    3    0    0 -0.63754550218E+01  0.16777061341E+01  0.37288954628E+01  0.60477123291E+02  0.60000972121E+02 0.  0.
          5    1    4    4  501    0  0.22612687000E+02 -0.31500379677E+01 -0.40579016682E+02  0.46797467318E+02  0.47000000000E+01 0. -1.
         -5    1    4    4    0  501 -0.16237231978E+02  0.14723318336E+01  0.11201341934E+02  0.20331638508E+02  0.47000000000E+01 0. -1.
         12    1    5    5    0    0  0.20210053122E+02  0.39456759668E+00 -0.17260334899E+02  0.26580464473E+02  0.00000000000E+00 0.  1.
        -12    1    5    5    0    0 -0.26585508144E+02  0.12831385375E+01  0.20989230362E+02  0.33896658817E+02  0.00000000000E+00 0.  1.
<mgrwt>
<rscale>  0 0.12500196E+03</rscale>
<asrwt>0</asrwt>
<pdfrwt beam="1">  1       21 0.78428808E-02 0.12500196E+03</pdfrwt>
<pdfrwt beam="2">  1       21 0.11788847E-01 0.12500196E+03</pdfrwt>
<totfact> 0.73683138E+06</totfact>
</mgrwt>
</event>
<event>
 9    1  0.4541185E-002  0.1250044E+03  0.7818608E-02  0.1235062E+00
         21   -1    0    0  503  502  0.00000000000E+00  0.00000000000E+00  0.47763556080E+02  0.47763556080E+02  0.00000000000E+00 0. -1.
         21   -1    0    0  502  503 -0.00000000000E+00 -0.00000000000E+00 -0.81788875206E+02  0.81788875206E+02  0.00000000000E+00 0. -1.
         25    2    1    2    0    0  0.00000000000E+00  0.00000000000E+00 -0.34025319127E+02  0.12955243129E+03  0.12500444036E+03 0.  0.
    9000006    2    3    3    0    0 -0.51326285882E+01  0.45791534871E+01 -0.32952160175E+00  0.60392741166E+02  0.59998850640E+02 0.  0.
    9000007    2    3    3    0    0  0.51326285882E+01 -0.45791534871E+01 -0.33695797525E+02  0.69159690120E+02  0.60002861963E+02 0.  0.
          5    1    4    4  501    0 -0.21769079041E+02 -0.67378523409E+01 -0.20871269668E+02  0.31256860911E+02  0.47000000000E+01 0. -1.
         -5    1    4    4    0  501  0.16636450453E+02  0.11317005828E+02  0.20541748067E+02  0.29135880255E+02  0.47000000000E+01 0. -1.
         12    1    5    5    0    0  0.31375822817E+01 -0.16607687188E+02 -0.47691463365E+02  0.50597780329E+02  0.00000000000E+00 0. -1.
        -12    1    5    5    0    0  0.19950463064E+01  0.12028533701E+02  0.13995665840E+02  0.18561909791E+02  0.00000000000E+00 0. -1.
<mgrwt>
<rscale>  0 0.12500444E+03</rscale>
<asrwt>0</asrwt>
<pdfrwt beam="1">  1       21 0.73482395E-02 0.12500444E+03</pdfrwt>
<pdfrwt beam="2">  1       21 0.12582904E-01 0.12500444E+03</pdfrwt>
<totfact> 0.73416470E+06</totfact>
</mgrwt>
</event>
<event>
 9    1  0.4541185E-002  0.1250020E+03  0.7818608E-02  0.1235066E+00
         21   -1    0    0  503  502  0.00000000000E+00  0.00000000000E+00  0.12081580731E+03  0.12081580731E+03  0.00000000000E+00 0.  1.
         21   -1    0    0  502  503 -0.00000000000E+00 -0.00000000000E+00 -0.32333288038E+02  0.32333288038E+02  0.00000000000E+00 0.  1.
         25    2    1    2    0    0  0.00000000000E+00  0.00000000000E+00  0.88482519270E+02  0.15314909535E+03  0.12500195674E+03 0.  0.
    9000006    2    3    3    0    0 -0.12471216650E+02  0.12038353896E+02  0.41257586605E+02  0.74850422355E+02  0.59999533873E+02 0.  0.
    9000007    2    3    3    0    0  0.12471216650E+02 -0.12038353896E+02  0.47224932665E+02  0.78298672992E+02  0.60000289315E+02 0.  0.
          5    1    4    4  501    0 -0.36262241296E+02  0.58363197287E+01  0.28682576701E+02  0.46837943785E+02  0.47000000000E+01 0. -1.
         -5    1    4    4    0  501  0.23791024646E+02  0.62020341675E+01  0.12575009905E+02  0.28012478570E+02  0.47000000000E+01 0. -1.
         12    1    5    5    0    0 -0.17951990343E+02  0.13074406450E+02  0.11187048240E+02  0.24866928030E+02  0.00000000000E+00 0. -1.
        -12    1    5    5    0    0  0.30423206993E+02 -0.25112760346E+02  0.36037884425E+02  0.53431744963E+02  0.00000000000E+00 0. -1.
<mgrwt>
<rscale>  0 0.12500196E+03</rscale>
<asrwt>0</asrwt>
<pdfrwt beam="1">  1       21 0.18587047E-01 0.12500196E+03</pdfrwt>
<pdfrwt beam="2">  1       21 0.49743521E-02 0.12500196E+03</pdfrwt>
<totfact> 0.70362319E+06</totfact>
</mgrwt>
</event>
<event>
 9    1  0.4541185E-002  0.1250048E+03  0.7818608E-02  0.1235062E+00
         21   -1    0    0  503  502  0.00000000000E+00  0.00000000000E+00  0.50748930368E+01  0.50748930368E+01  0.00000000000E+00 0. -1.
         21   -1    0    0  502  503 -0.00000000000E+00 -0.00000000000E+00 -0.76977958628E+03  0.76977958628E+03  0.00000000000E+00 0. -1.
         25    2    1    2    0    0 -0.17763568394E-14 -0.88817841970E-15 -0.76470469324E+03  0.77485447931E+03  0.12500478490E+03 0.  0.
    9000006    2    3    3    0    0 -0.56707544651E+00  0.41982681219E+01 -0.48763868291E+03  0.49133430442E+03  0.59999721676E+02 0.  0.
    9000007    2    3    3    0    0  0.56707544651E+00 -0.41982681219E+01 -0.27706601033E+03  0.28352017489E+03  0.60001403825E+02 0.  0.
          5    1    4    4  501    0 -0.27770035454E+02  0.13182009489E+02 -0.25867742384E+03  0.26053990068E+03  0.47000000000E+01 0. -1.
         -5    1    4    4    0  501  0.27202960008E+02 -0.89837413666E+01 -0.22896125907E+03  0.23079440374E+03  0.47000000000E+01 0. -1.
         12    1    5    5    0    0 -0.26098916725E+01 -0.12050666536E+02 -0.88666659594E+01  0.15187095303E+02  0.00000000000E+00 0. -1.
        -12    1    5    5    0    0  0.31769671190E+01  0.78523984145E+01 -0.26819934437E+03  0.26833307959E+03  0.00000000000E+00 0. -1.
<mgrwt>
<rscale>  0 0.12500478E+03</rscale>
<asrwt>0</asrwt>
<pdfrwt beam="1">  1       21 0.78075283E-03 0.12500478E+03</pdfrwt>
<pdfrwt beam="2">  1       21 0.11842762E+00 0.12500478E+03</pdfrwt>
<totfact> 0.30209425E+06</totfact>
</mgrwt>
</event>
<event>
 9    1  0.4541185E-002  0.1250050E+03  0.7818608E-02  0.1235062E+00
         21   -1    0    0  503  502  0.00000000000E+00  0.00000000000E+00  0.73132301861E+02  0.73132301861E+02  0.00000000000E+00 0.  1.
         21   -1    0    0  502  503 -0.00000000000E+00 -0.00000000000E+00 -0.53417724847E+02  0.53417724847E+02  0.00000000000E+00 0.  1.
         25    2    1    2    0    0 -0.17763568394E-14  0.00000000000E+00  0.19714577013E+02  0.12655002671E+03  0.12500497875E+03 0.  0.
    9000006    2    3    3    0    0  0.67730047060E+01  0.10016951148E+02 -0.29614593977E+01  0.61277610435E+02  0.59999686631E+02 0.  0.
    9000007    2    3    3    0    0 -0.67730047060E+01 -0.10016951148E+02  0.22676036411E+02  0.65272416273E+02  0.60000606629E+02 0.  0.
          5    1    4    4  501    0  0.23625920199E+02 -0.16567843615E+02  0.68110888284E+00  0.29244340591E+02  0.47000000000E+01 0. -1.
         -5    1    4    4    0  501 -0.16852915493E+02  0.26584794762E+02 -0.36425682805E+01  0.32033269843E+02  0.47000000000E+01 0. -1.
         12    1    5    5    0    0 -0.18402823150E+02  0.17535752657E+02 -0.33339902561E+01  0.25637511817E+02  0.00000000000E+00 0. -1.
        -12    1    5    5    0    0  0.11629818444E+02 -0.27552703805E+02  0.26010026667E+02  0.39634904456E+02  0.00000000000E+00 0. -1.
<mgrwt>
<rscale>  0 0.12500498E+03</rscale>
<asrwt>0</asrwt>
<pdfrwt beam="1">  1       21 0.11251123E-01 0.12500498E+03</pdfrwt>
<pdfrwt beam="2">  1       21 0.82181115E-02 0.12500498E+03</pdfrwt>
<totfact> 0.73821148E+06</totfact>
</mgrwt>
</event>
<event>
 9    1  0.4541185E-002  0.1249994E+03  0.7818608E-02  0.1235070E+00
         21   -1    0    0  503  502  0.00000000000E+00  0.00000000000E+00  0.29347223086E+03  0.29347223086E+03  0.00000000000E+00 0. -1.
         21   -1    0    0  502  503 -0.00000000000E+00 -0.00000000000E+00 -0.13310333460E+02  0.13310333460E+02  0.00000000000E+00 0. -1.
         25    2    1    2    0    0 -0.17763568394E-14  0.00000000000E+00  0.28016189740E+03  0.30678256432E+03  0.12499941206E+03 0.  0.
    9000006    2    3    3    0    0  0.13693549284E+02 -0.86236050348E+01  0.12373667576E+03  0.13846532033E+03  0.60000001238E+02 0.  0.
    9000007    2    3    3    0    0 -0.13693549284E+02  0.86236050348E+01  0.15642522164E+03  0.16831724400E+03  0.59999706712E+02 0.  0.
          5    1    4    4  501    0  0.35697012333E+01 -0.17051729148E+02  0.47493234274E+01  0.18658786318E+02  0.47000000000E+01 0. -1.
         -5    1    4    4    0  501  0.10123848051E+02  0.84281241134E+01  0.11898735234E+03  0.11980653401E+03  0.47000000000E+01 0. -1.
         12    1    5    5    0    0  0.74079145305E+01 -0.22511007157E+02  0.47547939387E+02  0.53126539327E+02  0.00000000000E+00 0.  1.
        -12    1    5    5    0    0 -0.21101463815E+02  0.31134612191E+02  0.10887728225E+03  0.11519070467E+03  0.00000000000E+00 0.  1.
<mgrwt>
<rscale>  0 0.12499941E+03</rscale>
<asrwt>0</asrwt>
<pdfrwt beam="1">  1       21 0.45149569E-01 0.12499941E+03</pdfrwt>
<pdfrwt beam="2">  1       21 0.20477438E-02 0.12499941E+03</pdfrwt>
<totfact> 0.54897997E+06</totfact>
</mgrwt>
</event>
<event>
 9    1  0.4541185E-002  0.1250054E+03  0.7818608E-02  0.1235061E+00
         21   -1    0    0  503  502  0.00000000000E+00  0.00000000000E+00  0.42214087024E+02  0.42214087024E+02  0.00000000000E+00 0. -1.
         21   -1    0    0  502  503 -0.00000000000E+00 -0.00000000000E+00 -0.92542258229E+02  0.92542258229E+02  0.00000000000E+00 0. -1.
         25    2    1    2    0    0  0.00000000000E+00 -0.17763568394E-14 -0.50328171204E+02  0.13475634525E+03  0.12500539096E+03 0.  0.
    9000006    2    3    3    0    0 -0.13107297269E+02 -0.96326141977E+01 -0.18179690891E+02  0.64769819891E+02  0.60000332581E+02 0.  0.
    9000007    2    3    3    0    0  0.13107297269E+02  0.96326141977E+01 -0.32148480314E+02  0.69986525362E+02  0.60000003732E+02 0.  0.
          5    1    4    4  501    0 -0.17024881887E+02 -0.23690084432E+01 -0.38453460759E+02  0.42381805632E+02  0.47000000000E+01 0. -1.
         -5    1    4    4    0  501  0.39175846181E+01 -0.72636057545E+01  0.20273769868E+02  0.22388014259E+02  0.47000000000E+01 0. -1.
         12    1    5    5    0    0 -0.50125684591E+01  0.16440672304E+02 -0.44035726493E+02  0.47271204301E+02  0.00000000000E+00 0. -1.
        -12    1    5    5    0    0  0.18119865728E+02 -0.68080581059E+01  0.11887246179E+02  0.22715321061E+02  0.00000000000E+00 0. -1.
<mgrwt>
<rscale>  0 0.12500539E+03</rscale>
<asrwt>0</asrwt>
<pdfrwt beam="1">  1       21 0.64944750E-02 0.12500539E+03</pdfrwt>
<pdfrwt beam="2">  1       21 0.14237270E-01 0.12500539E+03</pdfrwt>
<totfact> 0.72718750E+06</totfact>
</mgrwt>
</event>
<event>
 9    1  0.4541185E-002  0.1250004E+03  0.7818608E-02  0.1235069E+00
         21   -1    0    0  503  502  0.00000000000E+00  0.00000000000E+00  0.15665984548E+04  0.15665984548E+04  0.00000000000E+00 0.  1.
         21   -1    0    0  502  503 -0.00000000000E+00 -0.00000000000E+00 -0.24934765099E+01  0.24934765099E+01  0.00000000000E+00 0.  1.
         25    2    1    2    0    0 -0.17763568394E-14  0.17763568394E-14  0.15641049783E+04  0.15690919313E+04  0.12500042316E+03 0.  0.
    9000006    2    3    3    0    0  0.13263556815E+02 -0.24472463390E+01  0.64207529463E+03  0.64501373187E+03  0.60000994809E+02 0.  0.
    9000007    2    3    3    0    0 -0.13263556815E+02  0.24472463390E+01  0.92202968367E+03  0.92407819944E+03  0.59998918057E+02 0.  0.
          5    1    4    4  501    0  0.21709808217E+02  0.12444183668E+02  0.12165933940E+03  0.12429504553E+03  0.47000000000E+01 0. -1.
         -5    1    4    4    0  501 -0.84462514022E+01 -0.14891430007E+02  0.52041595523E+03  0.52071868634E+03  0.47000000000E+01 0. -1.
         12    1    5    5    0    0  0.39685376640E+01 -0.22452760698E+02  0.18105681869E+03  0.18248684157E+03  0.00000000000E+00 0. -1.
        -12    1    5    5    0    0 -0.17232094479E+02  0.24900007037E+02  0.74097286498E+03  0.74159135787E+03  0.00000000000E+00 0. -1.
<mgrwt>
<rscale>  0 0.12500042E+03</rscale>
<asrwt>0</asrwt>
<pdfrwt beam="1">  1       21 0.24101436E+00 0.12500042E+03</pdfrwt>
<pdfrwt beam="2">  1       21 0.38361302E-03 0.12500042E+03</pdfrwt>
<totfact> 0.12998849E+06</totfact>
</mgrwt>
</event>
<event>
 9    1  0.4541185E-002  0.1249969E+03  0.7818608E-02  0.1235074E+00
         21   -1    0    0  503  502  0.00000000000E+00  0.00000000000E+00  0.10518116994E+04  0.10518116994E+04  0.00000000000E+00 0.  1.
         21   -1    0    0  502  503 -0.00000000000E+00 -0.00000000000E+00 -0.37136467878E+01  0.37136467878E+01  0.00000000000E+00 0.  1.
         25    2    1    2    0    0  0.00000000000E+00  0.35527136788E-14  0.10480980526E+04  0.10555253462E+04  0.12499691418E+03 0.  0.
    9000006    2    3    3    0    0 -0.12703163824E+02 -0.62069085232E+01  0.43737008210E+03  0.44169432162E+03  0.60011573469E+02 0.  0.
    9000007    2    3    3    0    0  0.12703163824E+02  0.62069085232E+01  0.61072797049E+03  0.61383102455E+03  0.59999805600E+02 0.  0.
          5    1    4    4  501    0 -0.13287725148E+02 -0.23906981613E+02  0.38870043969E+03  0.38968991420E+03  0.47000000000E+01 0. -1.
         -5    1    4    4    0  501  0.58456132367E+00  0.17700073090E+02  0.48669642407E+02  0.52004407423E+02  0.47000000000E+01 0. -1.
         12    1    5    5    0    0 -0.51911310480E+00  0.21327244740E+02  0.82255832575E+02  0.84977307790E+02  0.00000000000E+00 0.  1.
        -12    1    5    5    0    0  0.13222276929E+02 -0.15120336217E+02  0.52847213792E+03  0.52885371676E+03  0.00000000000E+00 0.  1.
<mgrwt>
<rscale>  0 0.12499691E+03</rscale>
<asrwt>0</asrwt>
<pdfrwt beam="1">  1       21 0.16181695E+00 0.12499691E+03</pdfrwt>
<pdfrwt beam="2">  1       21 0.57133112E-03 0.12499691E+03</pdfrwt>
<totfact> 0.22270329E+06</totfact>
</mgrwt>
</event>
<event>
 9    1  0.4541185E-002  0.1250090E+03  0.7818608E-02  0.1235055E+00
         21   -1    0    0  503  502  0.00000000000E+00  0.00000000000E+00  0.45063939157E+03  0.45063939157E+03  0.00000000000E+00 0.  1.
         21   -1    0    0  502  503 -0.00000000000E+00 -0.00000000000E+00 -0.86694916874E+01  0.86694916874E+01  0.00000000000E+00 0.  1.
         25    2    1    2    0    0  0.17763568394E-14 -0.35527136788E-14  0.44196989989E+03  0.45930888326E+03  0.12500903102E+03 0.  0.
    9000006    2    3    3    0    0 -0.10708922245E+02  0.95636526970E+01  0.18409953903E+03  0.19416145854E+03  0.59999060369E+02 0.  0.
    9000007    2    3    3    0    0  0.10708922245E+02 -0.95636526970E+01  0.25787036086E+03  0.26514742472E+03  0.59999077961E+02 0.  0.
          5    1    4    4  501    0 -0.25401468273E+02 -0.14838928021E+02  0.12341588204E+03  0.12696061718E+03  0.47000000000E+01 0.  1.
         -5    1    4    4    0  501  0.14692546028E+02  0.24402580718E+02  0.60683656989E+02  0.67200841365E+02  0.47000000000E+01 0.  1.
         12    1    5    5    0    0 -0.26937143408E+01  0.23602866361E+02  0.70558822661E+02  0.74450647094E+02  0.00000000000E+00 0.  1.
        -12    1    5    5    0    0  0.13402636586E+02 -0.33166519058E+02  0.18731153820E+03  0.19069677762E+03  0.00000000000E+00 0.  1.
<mgrwt>
<rscale>  0 0.12500903E+03</rscale>
<asrwt>0</asrwt>
<pdfrwt beam="1">  1       21 0.69329119E-01 0.12500903E+03</pdfrwt>
<pdfrwt beam="2">  1       21 0.13337683E-02 0.12500903E+03</pdfrwt>
<totfact> 0.44330460E+06</totfact>
</mgrwt>
</event>
<event>
 9    1  0.4541185E-002  0.1249906E+03  0.7818608E-02  0.1235084E+00
         21   -1    0    0  503  502  0.00000000000E+00  0.00000000000E+00  0.19912733924E+02  0.19912733924E+02  0.00000000000E+00 0.  1.
         21   -1    0    0  502  503 -0.00000000000E+00 -0.00000000000E+00 -0.19613885030E+03  0.19613885030E+03  0.00000000000E+00 0.  1.
         25    2    1    2    0    0  0.17763568394E-14 -0.35527136788E-14 -0.17622611637E+03  0.21605158422E+03  0.12499057146E+03 0.  0.
    9000006    2    3    3    0    0 -0.94040556053E+00  0.16557283465E+02 -0.97681626858E+02  0.11583052519E+03  0.59999852840E+02 0.  0.
    9000007    2    3    3    0    0  0.94040556053E+00 -0.16557283465E+02 -0.78544489514E+02  0.10022105904E+03  0.59999965356E+02 0.  0.
          5    1    4    4  501    0  0.17830501227E+02  0.27588384094E+02 -0.82366168458E+02  0.88799332302E+02  0.47000000000E+01 0.  1.
         -5    1    4    4    0  501 -0.18770906788E+02 -0.11031100629E+02 -0.15315458401E+02  0.27031192884E+02  0.47000000000E+01 0.  1.
         12    1    5    5    0    0  0.11383409796E+02 -0.35956516896E+02 -0.62381558424E+02  0.72896583989E+02  0.00000000000E+00 0.  1.
        -12    1    5    5    0    0 -0.10443004235E+02  0.19399233431E+02 -0.16162931091E+02  0.27324475047E+02  0.00000000000E+00 0.  1.
<mgrwt>
<rscale>  0 0.12499057E+03</rscale>
<asrwt>0</asrwt>
<pdfrwt beam="1">  1       21 0.30634977E-02 0.12499057E+03</pdfrwt>
<pdfrwt beam="2">  1       21 0.30175206E-01 0.12499057E+03</pdfrwt>
<totfact> 0.63243485E+06</totfact>
</mgrwt>
</event>
<event>
 9    1  0.4541185E-002  0.1250030E+03  0.7818608E-02  0.1235065E+00
         21   -1    0    0  503  502  0.00000000000E+00  0.00000000000E+00  0.15637512234E+03  0.15637512234E+03  0.00000000000E+00 0.  1.
         21   -1    0    0  502  503 -0.00000000000E+00 -0.00000000000E+00 -0.24981203279E+02  0.24981203279E+02  0.00000000000E+00 0.  1.
         25    2    1    2    0    0 -0.35527136788E-14  0.88817841970E-15  0.13139391906E+03  0.18135632562E+03  0.12500301947E+03 0.  0.
    9000006    2    3    3    0    0  0.15066827602E+02  0.78788225432E+01  0.71737549823E+02  0.95054322605E+02  0.59999692105E+02 0.  0.
    9000007    2    3    3    0    0 -0.15066827602E+02 -0.78788225432E+01  0.59656369235E+02  0.86302003010E+02  0.60000568286E+02 0.  0.
          5    1    4    4  501    0 -0.18347804133E+02 -0.10094162148E+01  0.51116899212E+02  0.54522364427E+02  0.47000000000E+01 0. -1.
         -5    1    4    4    0  501  0.33414631735E+02  0.88882387580E+01  0.20620650610E+02  0.40531958179E+02  0.47000000000E+01 0. -1.
         12    1    5    5    0    0 -0.17522168496E+02 -0.18955715601E+02  0.24278415595E+00  0.25814811386E+02  0.00000000000E+00 0. -1.
        -12    1    5    5    0    0  0.24553408939E+01  0.11076893057E+02  0.59413585079E+02  0.60487191624E+02  0.00000000000E+00 0. -1.
<mgrwt>
<rscale>  0 0.12500302E+03</rscale>
<asrwt>0</asrwt>
<pdfrwt beam="1">  1       21 0.24057711E-01 0.12500302E+03</pdfrwt>
<pdfrwt beam="2">  1       21 0.38432621E-02 0.12500302E+03</pdfrwt>
<totfact> 0.66991153E+06</totfact>
</mgrwt>
</event>
<event>
 9    1  0.4541185E-002  0.1250047E+03  0.7818608E-02  0.1235062E+00
         21   -1    0    0  503  502  0.00000000000E+00  0.00000000000E+00  0.21789608646E+01  0.21789608646E+01  0.00000000000E+00 0.  1.
         21   -1    0    0  502  503 -0.00000000000E+00 -0.00000000000E+00 -0.17928462658E+04  0.17928462658E+04  0.00000000000E+00 0.  1.
         25    2    1    2    0    0  0.00000000000E+00  0.00000000000E+00 -0.17906673050E+04  0.17950252267E+04  0.12500466951E+03 0.  0.
    9000006    2    3    3    0    0 -0.13689398747E+02  0.92534950642E+01 -0.81221754849E+03  0.81459828776E+03  0.59999979512E+02 0.  0.
    9000007    2    3    3    0    0  0.13689398747E+02 -0.92534950642E+01 -0.97844975647E+03  0.98042693893E+03  0.60000248569E+02 0.  0.
          5    1    4    4  501    0  0.19227968006E+02  0.17709263135E+02 -0.44080237275E+03  0.44160180545E+03  0.47000000000E+01 0.  1.
         -5    1    4    4    0  501 -0.32917366753E+02 -0.84557680709E+01 -0.37141517574E+03  0.37299648231E+03  0.47000000000E+01 0.  1.
         12    1    5    5    0    0 -0.79735710243E+01  0.20793116662E+02 -0.52277478420E+03  0.52324889539E+03  0.00000000000E+00 0.  1.
        -12    1    5    5    0    0  0.21662969771E+02 -0.30046611726E+02 -0.45567497227E+03  0.45717804354E+03  0.00000000000E+00 0.  1.
<mgrwt>
<rscale>  0 0.12500467E+03</rscale>
<asrwt>0</asrwt>
<pdfrwt beam="1">  1       21 0.33522386E-03 0.12500467E+03</pdfrwt>
<pdfrwt beam="2">  1       21 0.27582323E+00 0.12500467E+03</pdfrwt>
<totfact> 0.10126032E+06</totfact>
</mgrwt>
</event>
<event>
 9    1  0.4541185E-002  0.1250029E+03  0.7818608E-02  0.1235065E+00
         21   -1    0    0  503  502  0.00000000000E+00  0.00000000000E+00  0.54388771809E+02  0.54388771809E+02  0.00000000000E+00 0. -1.
         21   -1    0    0  502  503 -0.00000000000E+00 -0.00000000000E+00 -0.71824214941E+02  0.71824214941E+02  0.00000000000E+00 0. -1.
         25    2    1    2    0    0  0.00000000000E+00  0.00000000000E+00 -0.17435443132E+02  0.12621298675E+03  0.12500289336E+03 0.  0.
    9000006    2    3    3    0    0 -0.12227196623E+02 -0.51785940816E+01  0.27940380243E+01  0.61515099622E+02  0.59999822159E+02 0.  0.
    9000007    2    3    3    0    0  0.12227196623E+02  0.51785940816E+01 -0.20229481156E+02  0.64697887127E+02  0.60002187602E+02 0.  0.
          5    1    4    4  501    0 -0.12894574859E+01  0.19403292634E+02 -0.18215646294E+02  0.27056426881E+02  0.47000000000E+01 0. -1.
         -5    1    4    4    0  501 -0.10937739137E+02 -0.24581886716E+02  0.21009684318E+02  0.34458672741E+02  0.47000000000E+01 0. -1.
         12    1    5    5    0    0  0.52780910621E-01  0.29734523139E+02  0.14233230352E+01  0.29768616034E+02  0.00000000000E+00 0.  1.
        -12    1    5    5    0    0  0.12174415712E+02 -0.24555929057E+02 -0.21652804191E+02  0.34929271094E+02  0.00000000000E+00 0.  1.
<mgrwt>
<rscale>  0 0.12500289E+03</rscale>
<asrwt>0</asrwt>
<pdfrwt beam="1">  1       21 0.83675034E-02 0.12500289E+03</pdfrwt>
<pdfrwt beam="2">  1       21 0.11049879E-01 0.12500289E+03</pdfrwt>
<totfact> 0.73871272E+06</totfact>
</mgrwt>
</event>
<event>
 9    1  0.4541185E-002  0.1249993E+03  0.7818608E-02  0.1235070E+00
         21   -1    0    0  503  502  0.00000000000E+00  0.00000000000E+00  0.53966392597E+03  0.53966392597E+03  0.00000000000E+00 0. -1.
         21   -1    0    0  502  503 -0.00000000000E+00 -0.00000000000E+00 -0.72382158660E+01  0.72382158660E+01  0.00000000000E+00 0. -1.
         25    2    1    2    0    0  0.00000000000E+00  0.00000000000E+00  0.53242571010E+03  0.54690214183E+03  0.12499926386E+03 0.  0.
    9000006    2    3    3    0    0  0.72428586236E+01  0.59205629597E+01  0.20153490528E+03  0.21048544800E+03  0.60002447493E+02 0.  0.
    9000007    2    3    3    0    0 -0.72428586236E+01 -0.59205629597E+01  0.33089080482E+03  0.33641669383E+03  0.59999625917E+02 0.  0.
          5    1    4    4  501    0  0.49445737473E+01 -0.14028260959E+02  0.17997572112E+03  0.18065046667E+03  0.47000000000E+01 0. -1.
         -5    1    4    4    0  501  0.22982848763E+01  0.19948823919E+02  0.21559184158E+02  0.29834981325E+02  0.47000000000E+01 0. -1.
         12    1    5    5    0    0  0.24409980891E+02  0.64605711252E+01  0.17881996280E+03  0.18059392360E+03  0.00000000000E+00 0. -1.
        -12    1    5    5    0    0 -0.31652839514E+02 -0.12381134085E+02  0.15207084202E+03  0.15582277023E+03  0.00000000000E+00 0. -1.
<mgrwt>
<rscale>  0 0.12499926E+03</rscale>
<asrwt>0</asrwt>
<pdfrwt beam="1">  1       21 0.83025188E-01 0.12499926E+03</pdfrwt>
<pdfrwt beam="2">  1       21 0.11135721E-02 0.12499926E+03</pdfrwt>
<totfact> 0.39610312E+06</totfact>
</mgrwt>
</event>
<event>
 9    1  0.4541185E-002  0.1250044E+03  0.7818608E-02  0.1235062E+00
         21   -1    0    0  503  502  0.00000000000E+00  0.00000000000E+00  0.12760904640E+02  0.12760904640E+02  0.00000000000E+00 0. -1.
         21   -1    0    0  502  503 -0.00000000000E+00 -0.00000000000E+00 -0.30613250095E+03  0.30613250095E+03  0.00000000000E+00 0. -1.
         25    2    1    2    0    0  0.35527136788E-14 -0.17763568394E-14 -0.29337159631E+03  0.31889340559E+03  0.12500444235E+03 0.  0.
    9000006    2    3    3    0    0 -0.16439618680E+02 -0.60624012382E+01 -0.14687815806E+03  0.15962441582E+03  0.59997891979E+02 0.  0.
    9000007    2    3    3    0    0  0.16439618680E+02  0.60624012382E+01 -0.14649343825E+03  0.15926898977E+03  0.59993915349E+02 0.  0.
          5    1    4    4  501    0  0.13131986510E+02 -0.23883833671E+02 -0.65417469324E+02  0.71024093611E+02  0.47000000000E+01 0. -1.
         -5    1    4    4    0  501 -0.29571605190E+02  0.17821432433E+02 -0.81460688732E+02  0.88600322213E+02  0.47000000000E+01 0. -1.
         12    1    5    5    0    0 -0.75956833996E+01  0.17967159921E+02 -0.11997691563E+03  0.12155234891E+03  0.00000000000E+00 0. -1.
        -12    1    5    5    0    0  0.24035302079E+02 -0.11904758683E+02 -0.26516522624E+02  0.37716640855E+02  0.00000000000E+00 0. -1.
<mgrwt>
<rscale>  0 0.12500444E+03</rscale>
<asrwt>0</asrwt>
<pdfrwt beam="1">  1       21 0.19632163E-02 0.12500444E+03</pdfrwt>
<pdfrwt beam="2">  1       21 0.47097303E-01 0.12500444E+03</pdfrwt>
<totfact> 0.53915144E+06</totfact>
</mgrwt>
</event>
<event>
 9    1  0.4541185E-002  0.1250025E+03  0.7818608E-02  0.1235065E+00
         21   -1    0    0  503  502  0.00000000000E+00  0.00000000000E+00  0.10409054470E+02  0.10409054470E+02  0.00000000000E+00 0.  1.
         21   -1    0    0  502  503 -0.00000000000E+00 -0.00000000000E+00 -0.37528946945E+03  0.37528946945E+03  0.00000000000E+00 0.  1.
         25    2    1    2    0    0  0.88817841970E-15  0.00000000000E+00 -0.36488041498E+03  0.38569852392E+03  0.12500253644E+03 0.  0.
    9000006    2    3    3    0    0 -0.14371546993E+01 -0.17231117235E+02 -0.17401001266E+03  0.18487391636E+03  0.59999196908E+02 0.  0.
    9000007    2    3    3    0    0  0.14371546993E+01  0.17231117235E+02 -0.19087040232E+03  0.20082460756E+03  0.60000297539E+02 0.  0.
          5    1    4    4  501    0 -0.38431719714E+01  0.21582513131E+02 -0.49341362825E+02  0.54196263056E+02  0.47000000000E+01 0.  1.
         -5    1    4    4    0  501  0.24060172722E+01 -0.38813630365E+02 -0.12466864983E+03  0.13067765330E+03  0.47000000000E+01 0.  1.
         12    1    5    5    0    0  0.68978785321E+01  0.30635214109E+01 -0.18400725540E+03  0.18416198286E+03  0.00000000000E+00 0. -1.
        -12    1    5    5    0    0 -0.54607238328E+01  0.14167595824E+02 -0.68631469218E+01  0.16662624699E+02  0.00000000000E+00 0. -1.
<mgrwt>
<rscale>  0 0.12500254E+03</rscale>
<asrwt>0</asrwt>
<pdfrwt beam="1">  1       21 0.16013929E-02 0.12500254E+03</pdfrwt>
<pdfrwt beam="2">  1       21 0.57736843E-01 0.12500254E+03</pdfrwt>
<totfact> 0.49001537E+06</totfact>
</mgrwt>
</event>
<event>
 9    1  0.4541185E-002  0.1249998E+03  0.7818608E-02  0.1235070E+00
         21   -1    0    0  503  502  0.00000000000E+00  0.00000000000E+00  0.32156349668E+02  0.32156349668E+02  0.00000000000E+00 0. -1.
         21   -1    0    0  502  503 -0.00000000000E+00 -0.00000000000E+00 -0.12147635944E+03  0.12147635944E+03  0.00000000000E+00 0. -1.
         25    2    1    2    0    0  0.00000000000E+00  0.00000000000E+00 -0.89320009769E+02  0.15363270911E+03  0.12499978065E+03 0.  0.
    9000006    2    3    3    0    0 -0.65109838263E+01  0.14362432907E+02 -0.35335488370E+02  0.71395357629E+02  0.60000233026E+02 0.  0.
    9000007    2    3    3    0    0  0.65109838263E+01 -0.14362432907E+02 -0.53984521399E+02  0.82237351477E+02  0.59999841982E+02 0.  0.
          5    1    4    4  501    0 -0.94920247577E+00  0.36320498510E+02 -0.12036875195E+02  0.38562364578E+02  0.47000000000E+01 0. -1.
         -5    1    4    4    0  501 -0.55617813506E+01 -0.21958065603E+02 -0.23298613175E+02  0.32832993051E+02  0.47000000000E+01 0. -1.
         12    1    5    5    0    0  0.63934123369E+01  0.13773879401E+02  0.57264917016E+01  0.16229238499E+02  0.00000000000E+00 0. -1.
        -12    1    5    5    0    0  0.11757148947E+00 -0.28136312308E+02 -0.59711013101E+02  0.66008112978E+02  0.00000000000E+00 0. -1.
<mgrwt>
<rscale>  0 0.12499978E+03</rscale>
<asrwt>0</asrwt>
<pdfrwt beam="1">  1       21 0.49471308E-02 0.12499978E+03</pdfrwt>
<pdfrwt beam="2">  1       21 0.18688670E-01 0.12499978E+03</pdfrwt>
<totfact> 0.70306186E+06</totfact>
</mgrwt>
</event>
<event>
 9    1  0.4541185E-002  0.1250003E+03  0.7818608E-02  0.1235069E+00
         21   -1    0    0  503  502  0.00000000000E+00  0.00000000000E+00  0.69407245835E+02  0.69407245835E+02  0.00000000000E+00 0.  1.
         21   -1    0    0  502  503 -0.00000000000E+00 -0.00000000000E+00 -0.56280379687E+02  0.56280379687E+02  0.00000000000E+00 0.  1.
         25    2    1    2    0    0  0.00000000000E+00  0.17763568394E-14  0.13126866148E+02  0.12568762552E+03  0.12500025838E+03 0.  0.
    9000006    2    3    3    0    0 -0.47014801254E+01 -0.12626981003E+02 -0.46660716439E+01  0.61671341074E+02  0.60000312671E+02 0.  0.
    9000007    2    3    3    0    0  0.47014801254E+01  0.12626981003E+02  0.17792937792E+02  0.64016284448E+02  0.59999595621E+02 0.  0.
          5    1    4    4  501    0  0.94747531281E+01 -0.18162007047E+01 -0.29126569681E+02  0.31040563674E+02  0.47000000000E+01 0. -1.
         -5    1    4    4    0  501 -0.14176233254E+02 -0.10810780298E+02  0.24460498037E+02  0.30630777400E+02  0.47000000000E+01 0. -1.
         12    1    5    5    0    0  0.37851706213E+01 -0.12430591694E+02  0.32462118973E+02  0.34966216477E+02  0.00000000000E+00 0. -1.
        -12    1    5    5    0    0  0.91630950414E+00  0.25057572697E+02 -0.14669181182E+02  0.29050067971E+02  0.00000000000E+00 0. -1.
<mgrwt>
<rscale>  0 0.12500026E+03</rscale>
<asrwt>0</asrwt>
<pdfrwt beam="1">  1       21 0.10678038E-01 0.12500026E+03</pdfrwt>
<pdfrwt beam="2">  1       21 0.86585200E-02 0.12500026E+03</pdfrwt>
<totfact> 0.73948768E+06</totfact>
</mgrwt>
</event>
<event>
 9    1  0.4541185E-002  0.1249961E+03  0.7818608E-02  0.1235075E+00
         21   -1    0    0  503  502  0.00000000000E+00  0.00000000000E+00  0.78430819200E+02  0.78430819200E+02  0.00000000000E+00 0.  1.
         21   -1    0    0  502  503 -0.00000000000E+00 -0.00000000000E+00 -0.49801891625E+02  0.49801891625E+02  0.00000000000E+00 0.  1.
         25    2    1    2    0    0 -0.88817841970E-15 -0.26645352591E-14  0.28628927575E+02  0.12823271083E+03  0.12499605046E+03 0.  0.
    9000006    2    3    3    0    0  0.77080957863E+01 -0.71337772631E+01 -0.57434867432E-01  0.60911235073E+02  0.59998914496E+02 0.  0.
    9000007    2    3    3    0    0 -0.77080957863E+01  0.71337772631E+01  0.28686362443E+02  0.67321475752E+02  0.59991400955E+02 0.  0.
          5    1    4    4  501    0 -0.60358340229E+01 -0.20530282334E+02  0.22170856861E+02  0.31169868126E+02  0.47000000000E+01 0.  1.
         -5    1    4    4    0  501  0.13743929809E+02  0.13396505070E+02 -0.22228291729E+02  0.29741366947E+02  0.47000000000E+01 0.  1.
         12    1    5    5    0    0 -0.15705281371E+02 -0.59273307106E+01 -0.14071096564E+02  0.21903992120E+02  0.00000000000E+00 0.  1.
        -12    1    5    5    0    0  0.79971855847E+01  0.13061107974E+02  0.42757459006E+02  0.45417483632E+02  0.00000000000E+00 0.  1.
<mgrwt>
<rscale>  0 0.12499605E+03</rscale>
<asrwt>0</asrwt>
<pdfrwt beam="1">  1       21 0.12066280E-01 0.12499605E+03</pdfrwt>
<pdfrwt beam="2">  1       21 0.76618295E-02 0.12499605E+03</pdfrwt>
<totfact> 0.73609569E+06</totfact>
</mgrwt>
</event>
<event>
 9    1  0.4541185E-002  0.1250214E+03  0.7818608E-02  0.1235036E+00
         21   -1    0    0  503  502  0.00000000000E+00  0.00000000000E+00  0.21488168104E+03  0.21488168104E+03  0.00000000000E+00 0.  1.
         21   -1    0    0  502  503 -0.00000000000E+00 -0.00000000000E+00 -0.18184827015E+02  0.18184827015E+02  0.00000000000E+00 0.  1.
         25    2    1    2    0    0  0.17763568394E-14  0.35527136788E-14  0.19669685402E+03  0.23306650805E+03  0.12502137735E+03 0.  0.
    9000006    2    3    3    0    0 -0.10142306343E+02  0.10791321169E+02  0.80840156760E+02  0.10175745474E+03  0.60001080487E+02 0.  0.
    9000007    2    3    3    0    0  0.10142306343E+02 -0.10791321169E+02  0.11585669726E+03  0.13130905331E+03  0.59999784923E+02 0.  0.
          5    1    4    4  501    0 -0.61337511969E+01  0.24696951673E+02  0.76246472529E+01  0.26977538275E+02  0.47000000000E+01 0.  1.
         -5    1    4    4    0  501 -0.40085551462E+01 -0.13905630504E+02  0.73215509507E+02  0.74779916465E+02  0.47000000000E+01 0.  1.
         12    1    5    5    0    0 -0.86540774561E+01  0.11879551433E+02  0.34342629361E+01  0.15093407858E+02  0.00000000000E+00 0.  1.
        -12    1    5    5    0    0  0.18796383799E+02 -0.22670872602E+02  0.11242243433E+03  0.11621564545E+03  0.00000000000E+00 0.  1.
<mgrwt>
<rscale>  0 0.12502138E+03</rscale>
<asrwt>0</asrwt>
<pdfrwt beam="1">  1       21 0.33058718E-01 0.12502138E+03</pdfrwt>
<pdfrwt beam="2">  1       21 0.27976659E-02 0.12502138E+03</pdfrwt>
<totfact> 0.61476952E+06</totfact>
</mgrwt>
</event>
<event>
 9    1  0.4541185E-002  0.1249990E+03  0.7818608E-02  0.1235071E+00
         21   -1    0    0  503  502  0.00000000000E+00  0.00000000000E+00  0.13876230976E+03  0.13876230976E+03  0.00000000000E+00 0. -1.
         21   -1    0    0  502  503 -0.00000000000E+00 -0.00000000000E+00 -0.28150200382E+02  0.28150200382E+02  0.00000000000E+00 0. -1.
         25    2    1    2    0    0  0.17763568394E-14  0.00000000000E+00  0.11061210937E+03  0.16691251014E+03  0.12499898920E+03 0.  0.
    9000006    2    3    3    0    0 -0.13047276099E+02 -0.11041985906E+02  0.50266546616E+02  0.80118109094E+02  0.60000240246E+02 0.  0.
    9000007    2    3    3    0    0  0.13047276099E+02  0.11041985906E+02  0.60345562757E+02  0.86794401045E+02  0.59996035218E+02 0.  0.
          5    1    4    4  501    0 -0.25068309588E+02  0.40137768498E+01  0.54076821644E+02  0.59924312172E+02  0.47000000000E+01 0.  1.
         -5    1    4    4    0  501  0.12021033489E+02 -0.15055762756E+02 -0.38102750273E+01  0.20193796922E+02  0.47000000000E+01 0.  1.
         12    1    5    5    0    0 -0.38843113997E+01 -0.91459798419E+01 -0.85018415725E+01  0.13077390123E+02  0.00000000000E+00 0.  1.
        -12    1    5    5    0    0  0.16931587499E+02  0.20187965748E+02  0.68847404330E+02  0.73717010922E+02  0.00000000000E+00 0.  1.
<mgrwt>
<rscale>  0 0.12499899E+03</rscale>
<asrwt>0</asrwt>
<pdfrwt beam="1">  1       21 0.21348047E-01 0.12499899E+03</pdfrwt>
<pdfrwt beam="2">  1       21 0.43308001E-02 0.12499899E+03</pdfrwt>
<totfact> 0.68686335E+06</totfact>
</mgrwt>
</event>
<event>
 9    1  0.4541185E-002  0.1249985E+03  0.7818608E-02  0.1235072E+00
         21   -1    0    0  503  502  0.00000000000E+00  0.00000000000E+00  0.49421983133E+02  0.49421983133E+02  0.00000000000E+00 0. -1.
         21   -1    0    0  502  503 -0.00000000000E+00 -0.00000000000E+00 -0.79036817245E+02  0.79036817245E+02  0.00000000000E+00 0. -1.
         25    2    1    2    0    0  0.26645352591E-14  0.17763568394E-14 -0.29614834112E+02  0.12845880038E+03  0.12499849997E+03 0.  0.
    9000006    2    3    3    0    0  0.25112505386E+01  0.55040454253E+01 -0.31672246281E+02  0.68116668671E+02  0.60001237246E+02 0.  0.
    9000007    2    3    3    0    0 -0.25112505386E+01 -0.55040454253E+01  0.20574121699E+01  0.60342131707E+02  0.60002825090E+02 0.  0.
          5    1    4    4  501    0 -0.18560800940E+02  0.37119753766E+01 -0.40320897387E+02  0.44790030797E+02  0.47000000000E+01 0.  1.
         -5    1    4    4    0  501  0.21072051478E+02  0.17920700487E+01  0.86486511052E+01  0.23326637874E+02  0.47000000000E+01 0.  1.
         12    1    5    5    0    0 -0.33380459969E+00 -0.24676364945E+02 -0.19468910330E+02  0.31433626610E+02  0.00000000000E+00 0. -1.
        -12    1    5    5    0    0 -0.21774459389E+01  0.19172319520E+02  0.21526322500E+02  0.28908505097E+02  0.00000000000E+00 0. -1.
<mgrwt>
<rscale>  0 0.12499850E+03</rscale>
<asrwt>0</asrwt>
<pdfrwt beam="1">  1       21 0.76033820E-02 0.12499850E+03</pdfrwt>
<pdfrwt beam="2">  1       21 0.12159510E-01 0.12499850E+03</pdfrwt>
<totfact> 0.73574489E+06</totfact>
</mgrwt>
</event>
<event>
 9    1  0.4541185E-002  0.1250044E+03  0.7818608E-02  0.1235062E+00
         21   -1    0    0  503  502  0.00000000000E+00  0.00000000000E+00  0.10880859482E+03  0.10880859482E+03  0.00000000000E+00 0. -1.
         21   -1    0    0  502  503 -0.00000000000E+00 -0.00000000000E+00 -0.35902753032E+02  0.35902753032E+02  0.00000000000E+00 0. -1.
         25    2    1    2    0    0  0.88817841970E-15  0.35527136788E-14  0.72905841787E+02  0.14471134785E+03  0.12500444964E+03 0.  0.
    9000006    2    3    3    0    0  0.65994368635E+01  0.10586949692E+02  0.22233432903E+02  0.65192029775E+02  0.60000326139E+02 0.  0.
    9000007    2    3    3    0    0 -0.65994368635E+01 -0.10586949692E+02  0.50672408884E+02  0.79519318077E+02  0.59999940456E+02 0.  0.
          5    1    4    4  501    0 -0.61682351554E+01  0.28216843003E+02 -0.53427735641E+01  0.29746807952E+02  0.47000000000E+01 0. -1.
         -5    1    4    4    0  501  0.12767672019E+02 -0.17629893311E+02  0.27576206467E+02  0.35445221823E+02  0.47000000000E+01 0. -1.
         12    1    5    5    0    0  0.40133288119E+01  0.17554070332E+02  0.45589818881E+02  0.49017178407E+02  0.00000000000E+00 0. -1.
        -12    1    5    5    0    0 -0.10612765675E+02 -0.28141020025E+02  0.50825900027E+01  0.30502139670E+02  0.00000000000E+00 0. -1.
<mgrwt>
<rscale>  0 0.12500445E+03</rscale>
<asrwt>0</asrwt>
<pdfrwt beam="1">  1       21 0.16739784E-01 0.12500445E+03</pdfrwt>
<pdfrwt beam="2">  1       21 0.55235005E-02 0.12500445E+03</pdfrwt>
<totfact> 0.71421965E+06</totfact>
</mgrwt>
</event>
<event>
 9    1  0.4541185E-002  0.1249996E+03  0.7818608E-02  0.1235070E+00
         21   -1    0    0  503  502  0.00000000000E+00  0.00000000000E+00  0.46128548936E+03  0.46128548936E+03  0.00000000000E+00 0.  1.
         21   -1    0    0  502  503 -0.00000000000E+00 -0.00000000000E+00 -0.84681356768E+01  0.84681356768E+01  0.00000000000E+00 0.  1.
         25    2    1    2    0    0 -0.17763568394E-14  0.17763568394E-14  0.45281735368E+03  0.46975362504E+03  0.12499964975E+03 0.  0.
    9000006    2    3    3    0    0 -0.41472232317E+01  0.10228138666E+02  0.17534228856E+03  0.18565217807E+03  0.59999989860E+02 0.  0.
    9000007    2    3    3    0    0  0.41472232317E+01 -0.10228138666E+02  0.27747506513E+03  0.28410144697E+03  0.59995050820E+02 0.  0.
          5    1    4    4  501    0 -0.21503110770E+02 -0.86498950144E+01  0.31088182281E+02  0.39061100011E+02  0.47000000000E+01 0.  1.
         -5    1    4    4    0  501  0.17355887538E+02  0.18878033680E+02  0.14425410628E+03  0.14659107806E+03  0.47000000000E+01 0.  1.
         12    1    5    5    0    0 -0.93154441577E+01 -0.31292746425E+02  0.20125906469E+03  0.20389022683E+03  0.00000000000E+00 0. -1.
        -12    1    5    5    0    0  0.13462667389E+02  0.21064607759E+02  0.76216000441E+02  0.80211220141E+02  0.00000000000E+00 0. -1.
<mgrwt>
<rscale>  0 0.12499965E+03</rscale>
<asrwt>0</asrwt>
<pdfrwt beam="1">  1       21 0.70966979E-01 0.12499965E+03</pdfrwt>
<pdfrwt beam="2">  1       21 0.13027905E-02 0.12499965E+03</pdfrwt>
<totfact> 0.43733762E+06</totfact>
</mgrwt>
</event>
<event>
 9    1  0.4541185E-002  0.1250003E+03  0.7818608E-02  0.1235069E+00
         21   -1    0    0  503  502  0.00000000000E+00  0.00000000000E+00  0.21118547017E+01  0.21118547017E+01  0.00000000000E+00 0. -1.
         21   -1    0    0  502  503 -0.00000000000E+00 -0.00000000000E+00 -0.18496874044E+04  0.18496874044E+04  0.00000000000E+00 0. -1.
         25    2    1    2    0    0  0.35527136788E-14  0.00000000000E+00 -0.18475755497E+04  0.18517992591E+04  0.12500033667E+03 0.  0.
    9000006    2    3    3    0    0 -0.13829243897E+02 -0.92396771156E+01 -0.84305300944E+03  0.84534901129E+03  0.59999621159E+02 0.  0.
    9000007    2    3    3    0    0  0.13829243897E+02  0.92396771156E+01 -0.10045225403E+04  0.10064502478E+04  0.59999565151E+02 0.  0.
          5    1    4    4  501    0 -0.28823542557E+02 -0.46599504370E+01 -0.20870621167E+03  0.21079109215E+03  0.47000000000E+01 0.  1.
         -5    1    4    4    0  501  0.14994298660E+02 -0.45797266786E+01 -0.63434679777E+03  0.63455791913E+03  0.47000000000E+01 0.  1.
         12    1    5    5    0    0  0.35152793550E+02  0.17343988163E+02 -0.59030427026E+03  0.59160431397E+03  0.00000000000E+00 0. -1.
        -12    1    5    5    0    0 -0.21323549653E+02 -0.81043110477E+01 -0.41421827001E+03  0.41484593386E+03  0.00000000000E+00 0. -1.
<mgrwt>
<rscale>  0 0.12500034E+03</rscale>
<asrwt>0</asrwt>
<pdfrwt beam="1">  1       21 0.32490027E-03 0.12500034E+03</pdfrwt>
<pdfrwt beam="2">  1       21 0.28456769E+00 0.12500034E+03</pdfrwt>
<totfact> 0.94863759E+05</totfact>
</mgrwt>
</event>
<event>
 9    1  0.4541185E-002  0.1250040E+03  0.7818608E-02  0.1235063E+00
         21   -1    0    0  503  502  0.00000000000E+00  0.00000000000E+00  0.23899836886E+02  0.23899836886E+02  0.00000000000E+00 0. -1.
         21   -1    0    0  502  503 -0.00000000000E+00 -0.00000000000E+00 -0.16345291345E+03  0.16345291345E+03  0.00000000000E+00 0. -1.
         25    2    1    2    0    0  0.00000000000E+00  0.35527136788E-14 -0.13955307656E+03  0.18735275033E+03  0.12500396746E+03 0.  0.
    9000006    2    3    3    0    0 -0.15997075192E+01  0.10832953433E+02 -0.90241230498E+02  0.10892049387E+03  0.60002352954E+02 0.  0.
    9000007    2    3    3    0    0  0.15997075192E+01 -0.10832953433E+02 -0.49311846064E+02  0.78432256458E+02  0.60000406221E+02 0.  0.
          5    1    4    4  501    0 -0.26942162631E+02  0.16557449694E+02 -0.33337878694E+02  0.46190187522E+02  0.47000000000E+01 0.  1.
         -5    1    4    4    0  501  0.25342455111E+02 -0.57244962611E+01 -0.56903351804E+02  0.62730306352E+02  0.47000000000E+01 0.  1.
         12    1    5    5    0    0  0.20847168481E+02  0.16071980081E+02 -0.13161095922E+02  0.29430042869E+02  0.00000000000E+00 0. -1.
        -12    1    5    5    0    0 -0.19247460962E+02 -0.26904933514E+02 -0.36150750142E+02  0.49002213589E+02  0.00000000000E+00 0. -1.
<mgrwt>
<rscale>  0 0.12500397E+03</rscale>
<asrwt>0</asrwt>
<pdfrwt beam="1">  1       21 0.36768981E-02 0.12500397E+03</pdfrwt>
<pdfrwt beam="2">  1       21 0.25146602E-01 0.12500397E+03</pdfrwt>
<totfact> 0.66311228E+06</totfact>
</mgrwt>
</event>
<event>
 9    1  0.4541185E-002  0.1250029E+03  0.7818608E-02  0.1235065E+00
         21   -1    0    0  503  502  0.00000000000E+00  0.00000000000E+00  0.47008896709E+01  0.47008896709E+01  0.00000000000E+00 0. -1.
         21   -1    0    0  502  503 -0.00000000000E+00 -0.00000000000E+00 -0.83099812491E+03  0.83099812491E+03  0.00000000000E+00 0. -1.
         25    2    1    2    0    0 -0.17763568394E-14  0.35527136788E-14 -0.82629723524E+03  0.83569901458E+03  0.12500288800E+03 0.  0.
    9000006    2    3    3    0    0 -0.84467716806E+01  0.14309366278E+02 -0.44996447290E+03  0.45425120699E+03  0.60000218853E+02 0.  0.
    9000007    2    3    3    0    0  0.84467716806E+01 -0.14309366278E+02 -0.37633276234E+03  0.38144780760E+03  0.59999799940E+02 0.  0.
          5    1    4    4  501    0  0.14512071289E+02 -0.10089402956E+02 -0.29826748393E+03  0.29882767314E+03  0.47000000000E+01 0.  1.
         -5    1    4    4    0  501 -0.22958842970E+02  0.24398769235E+02 -0.15169698897E+03  0.15542353384E+03  0.47000000000E+01 0.  1.
         12    1    5    5    0    0  0.29775697178E+02  0.51279095726E+01 -0.25228377137E+03  0.25408657756E+03  0.00000000000E+00 0.  1.
        -12    1    5    5    0    0 -0.21328925497E+02 -0.19437275851E+02 -0.12404899097E+03  0.12736123004E+03  0.00000000000E+00 0.  1.
<mgrwt>
<rscale>  0 0.12500289E+03</rscale>
<asrwt>0</asrwt>
<pdfrwt beam="1">  1       21 0.72321426E-03 0.12500289E+03</pdfrwt>
<pdfrwt beam="2">  1       21 0.12784578E+00 0.12500289E+03</pdfrwt>
<totfact> 0.28211679E+06</totfact>
</mgrwt>
</event>
<event>
 9    1  0.4541185E-002  0.1250023E+03  0.7818608E-02  0.1235066E+00
         21   -1    0    0  503  502  0.00000000000E+00  0.00000000000E+00  0.30966218415E+02  0.30966218415E+02  0.00000000000E+00 0.  1.
         21   -1    0    0  502  503 -0.00000000000E+00 -0.00000000000E+00 -0.12615008923E+03  0.12615008923E+03  0.00000000000E+00 0.  1.
         25    2    1    2    0    0  0.00000000000E+00  0.00000000000E+00 -0.95183870813E+02  0.15711630764E+03  0.12500225944E+03 0.  0.
    9000006    2    3    3    0    0 -0.86033423495E+01  0.12360524549E+02 -0.58801505536E+02  0.85348726710E+02  0.59999900259E+02 0.  0.
    9000007    2    3    3    0    0  0.86033423495E+01 -0.12360524549E+02 -0.36382365277E+02  0.71767580931E+02  0.60000909184E+02 0.  0.
          5    1    4    4  501    0 -0.12949317086E+02  0.35315319914E+02 -0.38699946459E+02  0.54172248334E+02  0.47000000000E+01 0.  1.
         -5    1    4    4    0  501  0.43459747362E+01 -0.22954795365E+02 -0.20101559076E+02  0.31176478376E+02  0.47000000000E+01 0.  1.
         12    1    5    5    0    0  0.10014580462E+01 -0.33797068598E+02 -0.68615886500E+01  0.34501103792E+02  0.00000000000E+00 0.  1.
        -12    1    5    5    0    0  0.76018843033E+01  0.21436544049E+02 -0.29520776627E+02  0.37266477140E+02  0.00000000000E+00 0.  1.
<mgrwt>
<rscale>  0 0.12500226E+03</rscale>
<asrwt>0</asrwt>
<pdfrwt beam="1">  1       21 0.47640335E-02 0.12500226E+03</pdfrwt>
<pdfrwt beam="2">  1       21 0.19407706E-01 0.12500226E+03</pdfrwt>
<totfact> 0.69869564E+06</totfact>
</mgrwt>
</event>
<event>
 9    1  0.4541185E-002  0.1250012E+03  0.7818608E-02  0.1235067E+00
         21   -1    0    0  503  502  0.00000000000E+00  0.00000000000E+00  0.30240557597E+01  0.30240557597E+01  0.00000000000E+00 0. -1.
         21   -1    0    0  502  503 -0.00000000000E+00 -0.00000000000E+00 -0.12917506824E+04  0.12917506824E+04  0.00000000000E+00 0. -1.
         25    2    1    2    0    0  0.00000000000E+00  0.00000000000E+00 -0.12887266267E+04  0.12947747382E+04  0.12500121746E+03 0.  0.
    9000006    2    3    3    0    0  0.32402427375E+01 -0.15312759172E+02 -0.72552011001E+03  0.72816504305E+03  0.59999334297E+02 0.  0.
    9000007    2    3    3    0    0 -0.32402427375E+01  0.15312759172E+02 -0.56320651667E+03  0.56660969515E+03  0.59999887150E+02 0.  0.
          5    1    4    4  501    0 -0.42332978601E+01  0.21973461382E+02 -0.21626489033E+03  0.21747033501E+03  0.47000000000E+01 0. -1.
         -5    1    4    4    0  501  0.74735405976E+01 -0.37286220554E+02 -0.50925521968E+03  0.51069470804E+03  0.47000000000E+01 0. -1.
         12    1    5    5    0    0 -0.18438316195E+00 -0.19212995539E+02 -0.84811572968E+02  0.86960773364E+02  0.00000000000E+00 0. -1.
        -12    1    5    5    0    0 -0.30558595755E+01  0.34525754711E+02 -0.47839494370E+03  0.47964892179E+03  0.00000000000E+00 0. -1.
<mgrwt>
<rscale>  0 0.12500122E+03</rscale>
<asrwt>0</asrwt>
<pdfrwt beam="1">  1       21 0.46523840E-03 0.12500122E+03</pdfrwt>
<pdfrwt beam="2">  1       21 0.19873128E+00 0.12500122E+03</pdfrwt>
<totfact> 0.17345851E+06</totfact>
</mgrwt>
</event>
<event>
 9    1  0.4541185E-002  0.1249973E+03  0.7818608E-02  0.1235074E+00
         21   -1    0    0  503  502  0.00000000000E+00  0.00000000000E+00  0.10531107091E+03  0.10531107091E+03  0.00000000000E+00 0. -1.
         21   -1    0    0  502  503 -0.00000000000E+00 -0.00000000000E+00 -0.37090887961E+02  0.37090887961E+02  0.00000000000E+00 0. -1.
         25    2    1    2    0    0  0.00000000000E+00 -0.35527136788E-14  0.68220182950E+02  0.14240195887E+03  0.12499729809E+03 0.  0.
    9000006    2    3    3    0    0  0.34398366754E+01 -0.15508898369E+02  0.42470493352E+02  0.75205389571E+02  0.59997911713E+02 0.  0.
    9000007    2    3    3    0    0 -0.34398366754E+01  0.15508898369E+02  0.25749689598E+02  0.67196569300E+02  0.59999783386E+02 0.  0.
          5    1    4    4  501    0 -0.24588570608E+02  0.21850473542E+01  0.30802893946E+02  0.39752742194E+02  0.47000000000E+01 0.  1.
         -5    1    4    4    0  501  0.28028407284E+02 -0.17693945723E+02  0.11667599406E+02  0.35452647377E+02  0.47000000000E+01 0.  1.
         12    1    5    5    0    0 -0.93074632006E+01  0.21859416731E+02  0.42304746622E+02  0.48519630644E+02  0.00000000000E+00 0.  1.
        -12    1    5    5    0    0  0.58676265252E+01 -0.63505183620E+01 -0.16555057024E+02  0.18676938657E+02  0.00000000000E+00 0.  1.
<mgrwt>
<rscale>  0 0.12499730E+03</rscale>
<asrwt>0</asrwt>
<pdfrwt beam="1">  1       21 0.16201703E-01 0.12499730E+03</pdfrwt>
<pdfrwt beam="2">  1       21 0.57062905E-02 0.12499730E+03</pdfrwt>
<totfact> 0.71732205E+06</totfact>
</mgrwt>
</event>
<event>
 9    1  0.4541185E-002  0.1249997E+03  0.7818608E-02  0.1235070E+00
         21   -1    0    0  503  502  0.00000000000E+00  0.00000000000E+00  0.50237378257E+03  0.50237378257E+03  0.00000000000E+00 0.  1.
         21   -1    0    0  502  503 -0.00000000000E+00 -0.00000000000E+00 -0.77755424183E+01  0.77755424183E+01  0.00000000000E+00 0.  1.
         25    2    1    2    0    0 -0.35527136788E-14  0.17763568394E-14  0.49459824015E+03  0.51014932499E+03  0.12499965850E+03 0.  0.
    9000006    2    3    3    0    0  0.11007339627E+02 -0.12749006831E+02  0.26667746257E+03  0.27386233765E+03  0.60000101979E+02 0.  0.
    9000007    2    3    3    0    0 -0.11007339627E+02  0.12749006831E+02  0.22792077758E+03  0.23628698734E+03  0.59999673606E+02 0.  0.
          5    1    4    4  501    0  0.14653672126E+02  0.20895692525E+02  0.15214478697E+03  0.15434210792E+03  0.47000000000E+01 0. -1.
         -5    1    4    4    0  501 -0.36463324987E+01 -0.33644699356E+02  0.11453267560E+03  0.11952022973E+03  0.47000000000E+01 0. -1.
         12    1    5    5    0    0  0.14040827006E+02  0.25030311324E+02  0.65843111039E+02  0.71826016033E+02  0.00000000000E+00 0.  1.
        -12    1    5    5    0    0 -0.25048166633E+02 -0.12281304493E+02  0.16207766654E+03  0.16446097131E+03  0.00000000000E+00 0.  1.
<mgrwt>
<rscale>  0 0.12499966E+03</rscale>
<asrwt>0</asrwt>
<pdfrwt beam="1">  1       21 0.77288249E-01 0.12499966E+03</pdfrwt>
<pdfrwt beam="2">  1       21 0.11962377E-02 0.12499966E+03</pdfrwt>
<totfact> 0.41499306E+06</totfact>
</mgrwt>
</event>
<event>
 9    1  0.4541185E-002  0.1249936E+03  0.7818608E-02  0.1235079E+00
         21   -1    0    0  503  502  0.00000000000E+00  0.00000000000E+00  0.90465805971E+01  0.90465805971E+01  0.00000000000E+00 0. -1.
         21   -1    0    0  502  503 -0.00000000000E+00 -0.00000000000E+00 -0.43174903298E+03  0.43174903298E+03  0.00000000000E+00 0. -1.
         25    2    1    2    0    0  0.00000000000E+00  0.00000000000E+00 -0.42270245239E+03  0.44079561358E+03  0.12499363863E+03 0.  0.
    9000006    2    3    3    0    0  0.94254932283E+01 -0.46722640797E+01 -0.26061977011E+03  0.26764419342E+03  0.60000664378E+02 0.  0.
    9000007    2    3    3    0    0 -0.94254932283E+01  0.46722640797E+01 -0.16208268228E+03  0.17315142016E+03  0.59999570290E+02 0.  0.
          5    1    4    4  501    0  0.93334408892E+01 -0.13510597939E+01 -0.26159436707E+03  0.26180649603E+03  0.47000000000E+01 0.  1.
         -5    1    4    4    0  501  0.92052339095E-01 -0.33212042857E+01  0.97459696340E+00  0.58376973870E+01  0.47000000000E+01 0.  1.
         12    1    5    5    0    0 -0.30947909405E+02 -0.26332509096E+01 -0.13108180276E+03  0.13471134370E+03  0.00000000000E+00 0.  1.
        -12    1    5    5    0    0  0.21522416177E+02  0.73055149893E+01 -0.31000879519E+02  0.38440076461E+02  0.00000000000E+00 0.  1.
<mgrwt>
<rscale>  0 0.12499364E+03</rscale>
<asrwt>0</asrwt>
<pdfrwt beam="1">  1       21 0.13917817E-02 0.12499364E+03</pdfrwt>
<pdfrwt beam="2">  1       21 0.66422923E-01 0.12499364E+03</pdfrwt>
<totfact> 0.45455332E+06</totfact>
</mgrwt>
</event>
<event>
 9    1  0.4541185E-002  0.1250033E+03  0.7818608E-02  0.1235064E+00
         21   -1    0    0  503  502  0.00000000000E+00  0.00000000000E+00  0.39057425594E+03  0.39057425594E+03  0.00000000000E+00 0. -1.
         21   -1    0    0  502  503 -0.00000000000E+00 -0.00000000000E+00 -0.10001834007E+02  0.10001834007E+02  0.00000000000E+00 0. -1.
         25    2    1    2    0    0  0.35527136788E-14  0.14432899320E-14  0.38057242193E+03  0.40057608995E+03  0.12500334196E+03 0.  0.
    9000006    2    3    3    0    0 -0.17306414403E+02  0.99680701423E+00  0.18254974410E+03  0.19293819112E+03  0.60001924297E+02 0.  0.
    9000007    2    3    3    0    0  0.17306414403E+02 -0.99680701423E+00  0.19802267784E+03  0.20763789883E+03  0.60000087397E+02 0.  0.
          5    1    4    4  501    0  0.10010332643E+02  0.17532289349E+02  0.12709888205E+03  0.12877811828E+03  0.47000000000E+01 0. -1.
         -5    1    4    4    0  501 -0.27316747046E+02 -0.16535482334E+02  0.55450862048E+02  0.64160072842E+02  0.47000000000E+01 0. -1.
         12    1    5    5    0    0  0.10568973392E+02 -0.19123210910E+01  0.13241649913E+01  0.10821902950E+02  0.00000000000E+00 0. -1.
        -12    1    5    5    0    0  0.67374410106E+01  0.91551407682E+00  0.19669851285E+03  0.19681599588E+03  0.00000000000E+00 0. -1.
<mgrwt>
<rscale>  0 0.12500334E+03</rscale>
<asrwt>0</asrwt>
<pdfrwt beam="1">  1       21 0.60088335E-01 0.12500334E+03</pdfrwt>
<pdfrwt beam="2">  1       21 0.15387440E-02 0.12500334E+03</pdfrwt>
<totfact> 0.47999158E+06</totfact>
</mgrwt>
</event>
<event>
 9    1  0.4541185E-002  0.1250121E+03  0.7818608E-02  0.1235050E+00
         21   -1    0    0  503  502  0.00000000000E+00  0.00000000000E+00  0.16165576974E+03  0.16165576974E+03  0.00000000000E+00 0. -1.
         21   -1    0    0  502  503 -0.00000000000E+00 -0.00000000000E+00 -0.24168665290E+02  0.24168665290E+02  0.00000000000E+00 0. -1.
         25    2    1    2    0    0  0.00000000000E+00 -0.35527136788E-14  0.13748710445E+03  0.18582443503E+03  0.12501206648E+03 0.  0.
    9000006    2    3    3    0    0  0.13976940848E+02 -0.93010561426E+01  0.76186072901E+02  0.98418597494E+02  0.60000317564E+02 0.  0.
    9000007    2    3    3    0    0 -0.13976940848E+02  0.93010561426E+01  0.61301031548E+02  0.87405837536E+02  0.60000828708E+02 0.  0.
          5    1    4    4  501    0 -0.69322872413E+01  0.19929541784E+02  0.47524908068E+02  0.52210632337E+02  0.47000000000E+01 0.  1.
         -5    1    4    4    0  501  0.20909228089E+02 -0.29230597926E+02  0.28661164833E+02  0.46207965158E+02  0.47000000000E+01 0.  1.
         12    1    5    5    0    0 -0.36634726915E+02 -0.23512077790E+01  0.33533676605E+02  0.49720608009E+02  0.00000000000E+00 0.  1.
        -12    1    5    5    0    0  0.22657786067E+02  0.11652263922E+02  0.27767354942E+02  0.37685229526E+02  0.00000000000E+00 0.  1.
<mgrwt>
<rscale>  0 0.12501207E+03</rscale>
<asrwt>0</asrwt>
<pdfrwt beam="1">  1       21 0.24870118E-01 0.12501207E+03</pdfrwt>
<pdfrwt beam="2">  1       21 0.37182563E-02 0.12501207E+03</pdfrwt>
<totfact> 0.66469241E+06</totfact>
</mgrwt>
</event>
<event>
 9    1  0.4541185E-002  0.1249943E+03  0.7818608E-02  0.1235078E+00
         21   -1    0    0  503  502  0.00000000000E+00  0.00000000000E+00  0.44715920689E+01  0.44715920689E+01  0.00000000000E+00 0. -1.
         21   -1    0    0  502  503 -0.00000000000E+00 -0.00000000000E+00 -0.87349015559E+03  0.87349015559E+03  0.00000000000E+00 0. -1.
         25    2    1    2    0    0 -0.17763568394E-14  0.00000000000E+00 -0.86901856352E+03  0.87796174766E+03  0.12499426630E+03 0.  0.
    9000006    2    3    3    0    0  0.14683014395E+02 -0.45078708037E+01 -0.37575758028E+03  0.38082762446E+03  0.60000071642E+02 0.  0.
    9000007    2    3    3    0    0 -0.14683014395E+02  0.45078708037E+01 -0.49326098324E+03  0.49713412320E+03  0.60000225481E+02 0.  0.
          5    1    4    4  501    0 -0.14493762731E+02 -0.16910540533E+02 -0.75292623789E+02  0.78658151112E+02  0.47000000000E+01 0.  1.
         -5    1    4    4    0  501  0.29176777126E+02  0.12402669730E+02 -0.30046495649E+03  0.30216947334E+03  0.47000000000E+01 0.  1.
         12    1    5    5    0    0 -0.83768118742E+01 -0.27094285742E+02 -0.18005728596E+03  0.18227698024E+03  0.00000000000E+00 0.  1.
        -12    1    5    5    0    0 -0.63062025210E+01  0.31602156546E+02 -0.31320369727E+03  0.31485714296E+03  0.00000000000E+00 0.  1.
<mgrwt>
<rscale>  0 0.12499427E+03</rscale>
<asrwt>0</asrwt>
<pdfrwt beam="1">  1       21 0.68793659E-03 0.12499427E+03</pdfrwt>
<pdfrwt beam="2">  1       21 0.13438323E+00 0.12499427E+03</pdfrwt>
<totfact> 0.26939901E+06</totfact>
</mgrwt>
</event>
<event>
 9    1  0.4541185E-002  0.1250006E+03  0.7818608E-02  0.1235068E+00
         21   -1    0    0  503  502  0.00000000000E+00  0.00000000000E+00  0.45159043321E+02  0.45159043321E+02  0.00000000000E+00 0.  1.
         21   -1    0    0  502  503 -0.00000000000E+00 -0.00000000000E+00 -0.86500643925E+02  0.86500643925E+02  0.00000000000E+00 0.  1.
         25    2    1    2    0    0  0.17763568394E-14 -0.35527136788E-14 -0.41341600604E+02  0.13165968725E+03  0.12500058122E+03 0.  0.
    9000006    2    3    3    0    0 -0.10580112952E+02  0.91916632590E+01 -0.31729496345E+02  0.69304595741E+02  0.59999504907E+02 0.  0.
    9000007    2    3    3    0    0  0.10580112952E+02 -0.91916632590E+01 -0.96121042588E+01  0.62355091504E+02  0.59994494953E+02 0.  0.
          5    1    4    4  501    0  0.49520977967E+01  0.98977748415E+01  0.15351761137E+02  0.19500148446E+02  0.47000000000E+01 0. -1.
         -5    1    4    4    0  501 -0.15532210748E+02 -0.70611158246E+00 -0.47081257482E+02  0.49804447295E+02  0.47000000000E+01 0. -1.
         12    1    5    5    0    0  0.10964728550E+02  0.19827330383E+02 -0.21272742911E+02  0.31078576114E+02  0.00000000000E+00 0.  1.
        -12    1    5    5    0    0 -0.38461559786E+00 -0.29018993642E+02  0.11660638652E+02  0.31276515390E+02  0.00000000000E+00 0.  1.
<mgrwt>
<rscale>  0 0.12500058E+03</rscale>
<asrwt>0</asrwt>
<pdfrwt beam="1">  1       21 0.69475451E-02 0.12500058E+03</pdfrwt>
<pdfrwt beam="2">  1       21 0.13307791E-01 0.12500058E+03</pdfrwt>
<totfact> 0.73140827E+06</totfact>
</mgrwt>
</event>
<event>
 9    1  0.4541185E-002  0.1249997E+03  0.7818608E-02  0.1235070E+00
         21   -1    0    0  503  502  0.00000000000E+00  0.00000000000E+00  0.75483931036E+01  0.75483931036E+01  0.00000000000E+00 0. -1.
         21   -1    0    0  502  503 -0.00000000000E+00 -0.00000000000E+00 -0.51749152013E+03  0.51749152013E+03  0.00000000000E+00 0. -1.
         25    2    1    2    0    0 -0.17763568394E-14  0.00000000000E+00 -0.50994312702E+03  0.52503991323E+03  0.12499967075E+03 0.  0.
    9000006    2    3    3    0    0 -0.74750325572E+01 -0.15677064866E+02 -0.26394279920E+03  0.27123311896E+03  0.59999642452E+02 0.  0.
    9000007    2    3    3    0    0  0.74750325572E+01  0.15677064866E+02 -0.24600032782E+03  0.25380679427E+03  0.60000675466E+02 0.  0.
          5    1    4    4  501    0  0.14527805973E+01 -0.35212089237E+02 -0.10687050027E+03  0.11262946163E+03  0.47000000000E+01 0. -1.
         -5    1    4    4    0  501 -0.89278131545E+01  0.19535024370E+02 -0.15707229893E+03  0.15860365732E+03  0.47000000000E+01 0. -1.
         12    1    5    5    0    0  0.89236423288E+01 -0.18307308201E+02 -0.38676649989E+02  0.43711236317E+02  0.00000000000E+00 0. -1.
        -12    1    5    5    0    0 -0.14486097715E+01  0.33984373067E+02 -0.20732367783E+03  0.21009555796E+03  0.00000000000E+00 0. -1.
<mgrwt>
<rscale>  0 0.12499967E+03</rscale>
<asrwt>0</asrwt>
<pdfrwt beam="1">  1       21 0.11612907E-02 0.12499967E+03</pdfrwt>
<pdfrwt beam="2">  1       21 0.79614116E-01 0.12499967E+03</pdfrwt>
<totfact> 0.40718185E+06</totfact>
</mgrwt>
</event>
<event>
 9    1  0.4541185E-002  0.1250001E+03  0.7818608E-02  0.1235069E+00
         21   -1    0    0  503  502  0.00000000000E+00  0.00000000000E+00  0.14584713431E+02  0.14584713431E+02  0.00000000000E+00 0. -1.
         21   -1    0    0  502  503 -0.00000000000E+00 -0.00000000000E+00 -0.26783233486E+03  0.26783233486E+03  0.00000000000E+00 0. -1.
         25    2    1    2    0    0  0.00000000000E+00  0.00000000000E+00 -0.25324762143E+03  0.28241704829E+03  0.12500012562E+03 0.  0.
    9000006    2    3    3    0    0  0.12659779272E+02  0.96517978116E+01 -0.14304934964E+03  0.15593796503E+03  0.60000877434E+02 0.  0.
    9000007    2    3    3    0    0 -0.12659779272E+02 -0.96517978116E+01 -0.11019827178E+03  0.12647908326E+03  0.59998934867E+02 0.  0.
          5    1    4    4  501    0  0.38832007507E+01 -0.54233708731E+01  0.30609402640E+01  0.87150189327E+01  0.47000000000E+01 0.  1.
         -5    1    4    4    0  501  0.87765785216E+01  0.15075168685E+02 -0.14611028991E+03  0.14722294610E+03  0.47000000000E+01 0.  1.
         12    1    5    5    0    0  0.15065182130E+02  0.29251332615E+01 -0.86628397929E+02  0.87977243904E+02  0.00000000000E+00 0.  1.
        -12    1    5    5    0    0 -0.27724961402E+02 -0.12576931073E+02 -0.23569873854E+02  0.38501839352E+02  0.00000000000E+00 0.  1.
<mgrwt>
<rscale>  0 0.12500013E+03</rscale>
<asrwt>0</asrwt>
<pdfrwt beam="1">  1       21 0.22438021E-02 0.12500013E+03</pdfrwt>
<pdfrwt beam="2">  1       21 0.41204974E-01 0.12500013E+03</pdfrwt>
<totfact> 0.56949611E+06</totfact>
</mgrwt>
</event>
<event>
 9    1  0.4541185E-002  0.1249835E+03  0.7818608E-02  0.1235095E+00
         21   -1    0    0  503  502  0.00000000000E+00  0.00000000000E+00  0.48795630338E+03  0.48795630338E+03  0.00000000000E+00 0. -1.
         21   -1    0    0  502  503 -0.00000000000E+00 -0.00000000000E+00 -0.80032199786E+01  0.80032199786E+01  0.00000000000E+00 0. -1.
         25    2    1    2    0    0  0.00000000000E+00  0.00000000000E+00  0.47995308340E+03  0.49595952336E+03  0.12498354509E+03 0.  0.
    9000006    2    3    3    0    0 -0.49151239419E+01 -0.16166959113E+02  0.22228999748E+03  0.23086382003E+03  0.59997761702E+02 0.  0.
    9000007    2    3    3    0    0  0.49151239419E+01  0.16166959113E+02  0.25766308593E+03  0.26509570333E+03  0.59999475547E+02 0.  0.
          5    1    4    4  501    0  0.14821760760E+02  0.14523855273E+02  0.44735206565E+02  0.49537416873E+02  0.47000000000E+01 0.  1.
         -5    1    4    4    0  501 -0.19736884702E+02 -0.30690814386E+02  0.17755479091E+03  0.18132640315E+03  0.47000000000E+01 0.  1.
         12    1    5    5    0    0  0.28692926008E+02  0.17608852640E+02  0.96994581130E+02  0.10267085498E+03  0.00000000000E+00 0. -1.
        -12    1    5    5    0    0 -0.23777802066E+02 -0.14418935274E+01  0.16066850480E+03  0.16242484835E+03  0.00000000000E+00 0. -1.
<mgrwt>
<rscale>  0 0.12498355E+03</rscale>
<asrwt>0</asrwt>
<pdfrwt beam="1">  1       21 0.75070177E-01 0.12498355E+03</pdfrwt>
<pdfrwt beam="2">  1       21 0.12312650E-02 0.12498355E+03</pdfrwt>
<totfact> 0.42281377E+06</totfact>
</mgrwt>
</event>
<event>
 9    1  0.4541185E-002  0.1250067E+03  0.7818608E-02  0.1235059E+00
         21   -1    0    0  503  502  0.00000000000E+00  0.00000000000E+00  0.31992395596E+03  0.31992395596E+03  0.00000000000E+00 0. -1.
         21   -1    0    0  502  503 -0.00000000000E+00 -0.00000000000E+00 -0.12211232461E+02  0.12211232461E+02  0.00000000000E+00 0. -1.
         25    2    1    2    0    0  0.17763568394E-14  0.35527136788E-14  0.30771272350E+03  0.33213518842E+03  0.12500665256E+03 0.  0.
    9000006    2    3    3    0    0 -0.25263052448E+01 -0.14706856820E+02  0.12954591851E+03  0.14354403850E+03  0.60000601093E+02 0.  0.
    9000007    2    3    3    0    0  0.25263052448E+01  0.14706856820E+02  0.17816680499E+03  0.18859114992E+03  0.60004479599E+02 0.  0.
          5    1    4    4  501    0  0.14640652644E+02  0.17252443377E+02  0.69404278498E+02  0.73150798944E+02  0.47000000000E+01 0. -1.
         -5    1    4    4    0  501 -0.17166957889E+02 -0.31959300198E+02  0.60141640009E+02  0.70393239556E+02  0.47000000000E+01 0. -1.
         12    1    5    5    0    0 -0.27607810239E+02 -0.14121747436E+01  0.81660792047E+02  0.86212936277E+02  0.00000000000E+00 0. -1.
        -12    1    5    5    0    0  0.30134115484E+02  0.16119031564E+02  0.96506012943E+02  0.10237821364E+03  0.00000000000E+00 0. -1.
<mgrwt>
<rscale>  0 0.12500665E+03</rscale>
<asrwt>0</asrwt>
<pdfrwt beam="1">  1       21 0.49219064E-01 0.12500665E+03</pdfrwt>
<pdfrwt beam="2">  1       21 0.18786514E-02 0.12500665E+03</pdfrwt>
<totfact> 0.52876670E+06</totfact>
</mgrwt>
</event>
<event>
 9    1  0.4541185E-002  0.1250026E+03  0.7818608E-02  0.1235065E+00
         21   -1    0    0  503  502  0.00000000000E+00  0.00000000000E+00  0.56062671378E+01  0.56062671378E+01  0.00000000000E+00 0. -1.
         21   -1    0    0  502  503 -0.00000000000E+00 -0.00000000000E+00 -0.69679411682E+03  0.69679411682E+03  0.00000000000E+00 0. -1.
         25    2    1    2    0    0 -0.88817841970E-15 -0.17763568394E-14 -0.69118784968E+03  0.70240038396E+03  0.12500262332E+03 0.  0.
    9000006    2    3    3    0    0 -0.72315390657E+01 -0.15767277094E+02 -0.33239729662E+03  0.33821419515E+03  0.59999806788E+02 0.  0.
    9000007    2    3    3    0    0  0.72315390657E+01  0.15767277094E+02 -0.35879055306E+03  0.36418618881E+03  0.60000141412E+02 0.  0.
          5    1    4    4  501    0 -0.61940470919E+01  0.20764453717E+02 -0.75521000479E+02  0.78708578127E+02  0.47000000000E+01 0. -1.
         -5    1    4    4    0  501 -0.10374919738E+01 -0.36531730810E+02 -0.25687629614E+03  0.25950561702E+03  0.47000000000E+01 0. -1.
         12    1    5    5    0    0  0.16973226899E+02  0.21254467175E+02 -0.34651925242E+03  0.34758514799E+03  0.00000000000E+00 0. -1.
        -12    1    5    5    0    0 -0.97416878328E+01 -0.54871900808E+01 -0.12271300639E+02  0.16601040817E+02  0.00000000000E+00 0. -1.
<mgrwt>
<rscale>  0 0.12500262E+03</rscale>
<asrwt>0</asrwt>
<pdfrwt beam="1">  1       21 0.86250318E-03 0.12500262E+03</pdfrwt>
<pdfrwt beam="2">  1       21 0.10719903E+00 0.12500262E+03</pdfrwt>
<totfact> 0.32815684E+06</totfact>
</mgrwt>
</event>
<event>
 9    1  0.4541185E-002  0.1249984E+03  0.7818608E-02  0.1235072E+00
         21   -1    0    0  503  502  0.00000000000E+00  0.00000000000E+00  0.83664652433E+01  0.83664652433E+01  0.00000000000E+00 0.  1.
         21   -1    0    0  502  503 -0.00000000000E+00 -0.00000000000E+00 -0.46688213112E+03  0.46688213112E+03  0.00000000000E+00 0.  1.
         25    2    1    2    0    0  0.00000000000E+00  0.17763568394E-14 -0.45851566588E+03  0.47524859637E+03  0.12499844996E+03 0.  0.
    9000006    2    3    3    0    0 -0.88220754216E+01  0.14955024436E+02 -0.23745309181E+03  0.24553114001E+03  0.60000734428E+02 0.  0.
    9000007    2    3    3    0    0  0.88220754216E+01 -0.14955024436E+02 -0.22106257407E+03  0.22971745636E+03  0.59999719431E+02 0.  0.
          5    1    4    4  501    0 -0.30483739280E+02  0.20212691458E+02 -0.17975451109E+03  0.18349818940E+03  0.47000000000E+01 0.  1.
         -5    1    4    4    0  501  0.21661663858E+02 -0.52576670217E+01 -0.57698580723E+02  0.62032950608E+02  0.47000000000E+01 0.  1.
         12    1    5    5    0    0  0.26075478770E+02 -0.43410558665E+01 -0.42783060196E+02  0.50290810282E+02  0.00000000000E+00 0.  1.
        -12    1    5    5    0    0 -0.17253403348E+02 -0.10613968570E+02 -0.17827951387E+03  0.17942664608E+03  0.00000000000E+00 0.  1.
<mgrwt>
<rscale>  0 0.12499845E+03</rscale>
<asrwt>0</asrwt>
<pdfrwt beam="1">  1       21 0.12871481E-02 0.12499845E+03</pdfrwt>
<pdfrwt beam="2">  1       21 0.71828043E-01 0.12499845E+03</pdfrwt>
<totfact> 0.43420676E+06</totfact>
</mgrwt>
</event>
<event>
 9    1  0.4541185E-002  0.1250052E+03  0.7818608E-02  0.1235061E+00
         21   -1    0    0  503  502  0.00000000000E+00  0.00000000000E+00  0.11357018508E+04  0.11357018508E+04  0.00000000000E+00 0. -1.
         21   -1    0    0  502  503 -0.00000000000E+00 -0.00000000000E+00 -0.34397868007E+01  0.34397868007E+01  0.00000000000E+00 0. -1.
         25    2    1    2    0    0  0.00000000000E+00  0.35527136788E-14  0.11322620640E+04  0.11391416376E+04  0.12500515567E+03 0.  0.
    9000006    2    3    3    0    0 -0.15841598927E+01  0.12086746367E+02  0.68065903185E+03  0.68340719111E+03  0.60000601819E+02 0.  0.
    9000007    2    3    3    0    0  0.15841598927E+01 -0.12086746367E+02  0.45160303214E+03  0.45573444649E+03  0.59999900611E+02 0.  0.
          5    1    4    4  501    0  0.12392292701E+02 -0.16533188321E+02  0.45157500700E+03  0.45207188829E+03  0.47000000000E+01 0. -1.
         -5    1    4    4    0  501 -0.13976452594E+02  0.28619934688E+02  0.22908402485E+03  0.23133530282E+03  0.47000000000E+01 0. -1.
         12    1    5    5    0    0  0.47062245315E+01  0.16026088348E+02  0.34618091743E+03  0.34658362865E+03  0.00000000000E+00 0. -1.
        -12    1    5    5    0    0 -0.31220646388E+01 -0.28112834715E+02  0.10542211471E+03  0.10915081784E+03  0.00000000000E+00 0. -1.
<mgrwt>
<rscale>  0 0.12500516E+03</rscale>
<asrwt>0</asrwt>
<pdfrwt beam="1">  1       21 0.17472306E+00 0.12500516E+03</pdfrwt>
<pdfrwt beam="2">  1       21 0.52919888E-03 0.12500516E+03</pdfrwt>
<totfact> 0.20397335E+06</totfact>
</mgrwt>
</event>
<event>
 9    1  0.4541185E-002  0.1250001E+03  0.7818608E-02  0.1235069E+00
         21   -1    0    0  503  502  0.00000000000E+00  0.00000000000E+00  0.37726555014E+02  0.37726555014E+02  0.00000000000E+00 0.  1.
         21   -1    0    0  502  503 -0.00000000000E+00 -0.00000000000E+00 -0.10354135646E+03  0.10354135646E+03  0.00000000000E+00 0.  1.
         25    2    1    2    0    0 -0.17763568394E-14 -0.17763568394E-14 -0.65814801448E+02  0.14126791148E+03  0.12500013889E+03 0.  0.
    9000006    2    3    3    0    0  0.65596676957E+00  0.12966484735E+02 -0.19648283564E+02  0.64456367972E+02  0.60000069219E+02 0.  0.
    9000007    2    3    3    0    0 -0.65596676957E+00 -0.12966484735E+02 -0.46166517883E+02  0.76811543504E+02  0.60000881853E+02 0.  0.
          5    1    4    4  501    0  0.17886870198E+02  0.68491645805E+01  0.15148549270E+02  0.24868046283E+02  0.47000000000E+01 0. -1.
         -5    1    4    4    0  501 -0.17230903428E+02  0.61173201542E+01 -0.34796832835E+02  0.39588321689E+02  0.47000000000E+01 0. -1.
         12    1    5    5    0    0  0.15740723459E+02  0.55994865541E+01 -0.49103746506E+02  0.51868126490E+02  0.00000000000E+00 0. -1.
        -12    1    5    5    0    0 -0.16396690229E+02 -0.18565971289E+02  0.29372286222E+01  0.24943417014E+02  0.00000000000E+00 0. -1.
<mgrwt>
<rscale>  0 0.12500014E+03</rscale>
<asrwt>0</asrwt>
<pdfrwt beam="1">  1       21 0.58040854E-02 0.12500014E+03</pdfrwt>
<pdfrwt beam="2">  1       21 0.15929439E-01 0.12500014E+03</pdfrwt>
<totfact> 0.71873960E+06</totfact>
</mgrwt>
</event>
<event>
 9    1  0.4541185E-002  0.1250007E+03  0.7818608E-02  0.1235068E+00
         21   -1    0    0  503  502  0.00000000000E+00  0.00000000000E+00  0.75590633111E+02  0.75590633111E+02  0.00000000000E+00 0.  1.
         21   -1    0    0  502  503 -0.00000000000E+00 -0.00000000000E+00 -0.51676938752E+02  0.51676938752E+02  0.00000000000E+00 0.  1.
         25    2    1    2    0    0 -0.35527136788E-14 -0.17763568394E-14  0.23913694358E+02  0.12726757186E+03  0.12500068028E+03 0.  0.
    9000006    2    3    3    0    0  0.15056104732E+02 -0.33162506251E+00  0.28740109240E+01  0.61927416333E+02  0.59999572415E+02 0.  0.
    9000007    2    3    3    0    0 -0.15056104732E+02  0.33162506251E+00  0.21039683434E+02  0.65340155530E+02  0.59998928163E+02 0.  0.
          5    1    4    4  501    0 -0.13605126046E+02 -0.18604969203E+02  0.12018563579E+02  0.26415529604E+02  0.47000000000E+01 0.  1.
         -5    1    4    4    0  501  0.28661230778E+02  0.18273344141E+02 -0.91445526554E+01  0.35511886729E+02  0.47000000000E+01 0.  1.
         12    1    5    5    0    0 -0.15020046045E+02 -0.61438605823E+01 -0.18881613068E+02  0.24897070472E+02  0.00000000000E+00 0.  1.
        -12    1    5    5    0    0 -0.36058686749E-01  0.64754856448E+01  0.39921296502E+02  0.40443085058E+02  0.00000000000E+00 0.  1.
<mgrwt>
<rscale>  0 0.12500068E+03</rscale>
<asrwt>0</asrwt>
<pdfrwt beam="1">  1       21 0.11629328E-01 0.12500068E+03</pdfrwt>
<pdfrwt beam="2">  1       21 0.79502982E-02 0.12500068E+03</pdfrwt>
<totfact> 0.73731475E+06</totfact>
</mgrwt>
</event>
<event>
 9    1  0.4541185E-002  0.1249996E+03  0.7818608E-02  0.1235070E+00
         21   -1    0    0  503  502  0.00000000000E+00  0.00000000000E+00  0.54789898313E+02  0.54789898313E+02  0.00000000000E+00 0.  1.
         21   -1    0    0  502  503 -0.00000000000E+00 -0.00000000000E+00 -0.71294625807E+02  0.71294625807E+02  0.00000000000E+00 0.  1.
         25    2    1    2    0    0 -0.35527136788E-14 -0.17763568394E-14 -0.16504727494E+02  0.12608452412E+03  0.12499960477E+03 0.  0.
    9000006    2    3    3    0    0 -0.16151484591E+02  0.65667271453E+01 -0.97900837534E+01  0.63243354115E+02  0.59999031159E+02 0.  0.
    9000007    2    3    3    0    0  0.16151484591E+02 -0.65667271453E+01 -0.67146437408E+01  0.62841170004E+02  0.59999448722E+02 0.  0.
          5    1    4    4  501    0  0.93216121623E+01  0.17122600852E+02 -0.24483027681E+02  0.31647820741E+02  0.47000000000E+01 0.  1.
         -5    1    4    4    0  501 -0.25473096754E+02 -0.10555873707E+02  0.14692943928E+02  0.31595533374E+02  0.47000000000E+01 0.  1.
         12    1    5    5    0    0  0.28380494041E+02  0.13741115083E+02  0.10840020845E+02  0.33343316237E+02  0.00000000000E+00 0.  1.
        -12    1    5    5    0    0 -0.12229009450E+02 -0.20307842229E+02 -0.17554664586E+02  0.29497853767E+02  0.00000000000E+00 0.  1.
<mgrwt>
<rscale>  0 0.12499960E+03</rscale>
<asrwt>0</asrwt>
<pdfrwt beam="1">  1       21 0.84292151E-02 0.12499960E+03</pdfrwt>
<pdfrwt beam="2">  1       21 0.10968404E-01 0.12499960E+03</pdfrwt>
<totfact> 0.73895138E+06</totfact>
</mgrwt>
</event>
<event>
 9    1  0.4541185E-002  0.1250006E+03  0.7818608E-02  0.1235068E+00
         21   -1    0    0  503  502  0.00000000000E+00  0.00000000000E+00  0.24624040322E+03  0.24624040322E+03  0.00000000000E+00 0.  1.
         21   -1    0    0  502  503 -0.00000000000E+00 -0.00000000000E+00 -0.15863710163E+02  0.15863710163E+02  0.00000000000E+00 0.  1.
         25    2    1    2    0    0  0.00000000000E+00  0.00000000000E+00  0.23037669306E+03  0.26210411338E+03  0.12500058219E+03 0.  0.
    9000006    2    3    3    0    0  0.10827598759E+02 -0.64013043050E+00  0.14397623878E+03  0.15635464313E+03  0.59999753604E+02 0.  0.
    9000007    2    3    3    0    0 -0.10827598759E+02  0.64013043050E+00  0.86400454277E+02  0.10574947026E+03  0.60002210777E+02 0.  0.
          5    1    4    4  501    0  0.14966575132E+02  0.11293566765E+02  0.10114095975E+02  0.21815773167E+02  0.47000000000E+01 0.  1.
         -5    1    4    4    0  501 -0.41389763738E+01 -0.11933697195E+02  0.13386214280E+03  0.13453886996E+03  0.47000000000E+01 0.  1.
         12    1    5    5    0    0  0.73858719191E+01  0.47640032530E+01 -0.65375631657E+01  0.10953837827E+02  0.00000000000E+00 0. -1.
        -12    1    5    5    0    0 -0.18213470678E+02 -0.41238728225E+01  0.92938017443E+02  0.94795632428E+02  0.00000000000E+00 0. -1.
<mgrwt>
<rscale>  0 0.12500058E+03</rscale>
<asrwt>0</asrwt>
<pdfrwt beam="1">  1       21 0.37883136E-01 0.12500058E+03</pdfrwt>
<pdfrwt beam="2">  1       21 0.24405710E-02 0.12500058E+03</pdfrwt>
<totfact> 0.58756092E+06</totfact>
</mgrwt>
</event>
<event>
 9    1  0.4541185E-002  0.1250003E+03  0.7818608E-02  0.1235069E+00
         21   -1    0    0  503  502  0.00000000000E+00  0.00000000000E+00  0.26830906762E+03  0.26830906762E+03  0.00000000000E+00 0. -1.
         21   -1    0    0  502  503 -0.00000000000E+00 -0.00000000000E+00 -0.14558850633E+02  0.14558850633E+02  0.00000000000E+00 0. -1.
         25    2    1    2    0    0  0.35527136788E-14  0.00000000000E+00  0.25375021699E+03  0.28286791826E+03  0.12500034622E+03 0.  0.
    9000006    2    3    3    0    0  0.13248498275E+02 -0.62668635943E+01  0.14854517824E+03  0.16087252581E+03  0.59995860648E+02 0.  0.
    9000007    2    3    3    0    0 -0.13248498275E+02  0.62668635943E+01  0.10520503875E+03  0.12199539245E+03  0.59999827625E+02 0.  0.
          5    1    4    4  501    0  0.14289784727E+01  0.73146712722E+01 -0.21200193878E+01  0.90626087580E+01  0.47000000000E+01 0.  1.
         -5    1    4    4    0  501  0.11819519802E+02 -0.13581534867E+02  0.15066519763E+03  0.15180991705E+03  0.47000000000E+01 0.  1.
         12    1    5    5    0    0  0.20949103357E+02  0.15795282463E+02  0.46502569695E+02  0.53393303586E+02  0.00000000000E+00 0. -1.
        -12    1    5    5    0    0 -0.34197601632E+02 -0.95284188691E+01  0.58702469053E+02  0.68602088864E+02  0.00000000000E+00 0. -1.
<mgrwt>
<rscale>  0 0.12500035E+03</rscale>
<asrwt>0</asrwt>
<pdfrwt beam="1">  1       21 0.41278315E-01 0.12500035E+03</pdfrwt>
<pdfrwt beam="2">  1       21 0.22398234E-02 0.12500035E+03</pdfrwt>
<totfact> 0.56910169E+06</totfact>
</mgrwt>
</event>
<event>
 9    1  0.4541185E-002  0.1249991E+03  0.7818608E-02  0.1235071E+00
         21   -1    0    0  503  502  0.00000000000E+00  0.00000000000E+00  0.36946759995E+03  0.36946759995E+03  0.00000000000E+00 0. -1.
         21   -1    0    0  502  503 -0.00000000000E+00 -0.00000000000E+00 -0.10572485901E+02  0.10572485901E+02  0.00000000000E+00 0. -1.
         25    2    1    2    0    0 -0.35527136788E-14  0.00000000000E+00  0.35889511405E+03  0.38004008585E+03  0.12499905586E+03 0.  0.
    9000006    2    3    3    0    0 -0.33315368363E+01  0.56009561129E+00  0.23164896052E+03  0.23931698692E+03  0.59999720594E+02 0.  0.
    9000007    2    3    3    0    0  0.33315368363E+01 -0.56009561129E+00  0.12724615352E+03  0.14072309893E+03  0.59999951177E+02 0.  0.
          5    1    4    4  501    0 -0.23110930814E+02 -0.18909297362E+02  0.91335349879E+02  0.96207654515E+02  0.47000000000E+01 0.  1.
         -5    1    4    4    0  501  0.19779393977E+02  0.19469392973E+02  0.14031361064E+03  0.14310933240E+03  0.47000000000E+01 0.  1.
         12    1    5    5    0    0  0.16538817653E+02  0.18936584593E+02  0.23764971916E+02  0.34596251468E+02  0.00000000000E+00 0.  1.
        -12    1    5    5    0    0 -0.13207280817E+02 -0.19496680204E+02  0.10348118161E+03  0.10612684746E+03  0.00000000000E+00 0.  1.
<mgrwt>
<rscale>  0 0.12499906E+03</rscale>
<asrwt>0</asrwt>
<pdfrwt beam="1">  1       21 0.56841159E-01 0.12499906E+03</pdfrwt>
<pdfrwt beam="2">  1       21 0.16265366E-02 0.12499906E+03</pdfrwt>
<totfact> 0.49394740E+06</totfact>
</mgrwt>
</event>
<event>
 9    1  0.4541185E-002  0.1250012E+03  0.7818608E-02  0.1235067E+00
         21   -1    0    0  503  502  0.00000000000E+00  0.00000000000E+00  0.30808105492E+02  0.30808105492E+02  0.00000000000E+00 0. -1.
         21   -1    0    0  502  503 -0.00000000000E+00 -0.00000000000E+00 -0.12679544529E+03  0.12679544529E+03  0.00000000000E+00 0. -1.
         25    2    1    2    0    0 -0.17763568394E-14 -0.17763568394E-14 -0.95987339796E+02  0.15760355078E+03  0.12500123926E+03 0.  0.
    9000006    2    3    3    0    0 -0.12067714733E+02  0.71500831658E+01 -0.34793972197E+02  0.70762817363E+02  0.60000019931E+02 0.  0.
    9000007    2    3    3    0    0  0.12067714733E+02 -0.71500831658E+01 -0.61193367599E+02  0.86840733418E+02  0.59999427617E+02 0.  0.
          5    1    4    4  501    0  0.69863357031E+01 -0.13796695073E+02  0.89246282670E+01  0.18463387317E+02  0.47000000000E+01 0. -1.
         -5    1    4    4    0  501 -0.19054050436E+02  0.20946778239E+02 -0.43718600464E+02  0.52299430046E+02  0.47000000000E+01 0. -1.
         12    1    5    5    0    0 -0.19559182392E+02  0.51672821648E+01 -0.44385742765E+01  0.20711430719E+02  0.00000000000E+00 0. -1.
        -12    1    5    5    0    0  0.31626897125E+02 -0.12317365331E+02 -0.56754793323E+02  0.66129302699E+02  0.00000000000E+00 0. -1.
<mgrwt>
<rscale>  0 0.12500124E+03</rscale>
<asrwt>0</asrwt>
<pdfrwt beam="1">  1       21 0.47397085E-02 0.12500124E+03</pdfrwt>
<pdfrwt beam="2">  1       21 0.19506992E-01 0.12500124E+03</pdfrwt>
<totfact> 0.69811308E+06</totfact>
</mgrwt>
</event>
<event>
 9    1  0.4541185E-002  0.1250002E+03  0.7818608E-02  0.1235069E+00
         21   -1    0    0  503  502  0.00000000000E+00  0.00000000000E+00  0.10624675125E+03  0.10624675125E+03  0.00000000000E+00 0.  1.
         21   -1    0    0  502  503 -0.00000000000E+00 -0.00000000000E+00 -0.36765950809E+02  0.36765950809E+02  0.00000000000E+00 0.  1.
         25    2    1    2    0    0  0.00000000000E+00 -0.35527136788E-14  0.69480800445E+02  0.14301270206E+03  0.12500020528E+03 0.  0.
    9000006    2    3    3    0    0 -0.15967417520E+02  0.46556183509E+01  0.40966445731E+02  0.74531042661E+02  0.59999945332E+02 0.  0.
    9000007    2    3    3    0    0  0.15967417520E+02 -0.46556183509E+01  0.28514354714E+02  0.68481659401E+02  0.60000300375E+02 0.  0.
          5    1    4    4  501    0  0.11261952533E+02 -0.69197014454E+01 -0.87153982551E+01  0.16515508157E+02  0.47000000000E+01 0.  1.
         -5    1    4    4    0  501 -0.27229370053E+02  0.11575319796E+02  0.49681843986E+02  0.58015534504E+02  0.47000000000E+01 0.  1.
         12    1    5    5    0    0  0.13271582012E+02 -0.32066723040E+02  0.16641872710E+02  0.38488459867E+02  0.00000000000E+00 0.  1.
        -12    1    5    5    0    0  0.26958355087E+01  0.27411104689E+02  0.11872482004E+02  0.29993199534E+02  0.00000000000E+00 0.  1.
<mgrwt>
<rscale>  0 0.12500021E+03</rscale>
<asrwt>0</asrwt>
<pdfrwt beam="1">  1       21 0.16345654E-01 0.12500021E+03</pdfrwt>
<pdfrwt beam="2">  1       21 0.56563002E-02 0.12500021E+03</pdfrwt>
<totfact> 0.71648031E+06</totfact>
</mgrwt>
</event>
<event>
 9    1  0.4541185E-002  0.1250014E+03  0.7818608E-02  0.1235067E+00
         21   -1    0    0  503  502  0.00000000000E+00  0.00000000000E+00  0.17134764881E+02  0.17134764881E+02  0.00000000000E+00 0.  1.
         21   -1    0    0  502  503 -0.00000000000E+00 -0.00000000000E+00 -0.22797747652E+03  0.22797747652E+03  0.00000000000E+00 0.  1.
         25    2    1    2    0    0 -0.17763568394E-14  0.17763568394E-14 -0.21084271164E+03  0.24511224140E+03  0.12500144732E+03 0.  0.
    9000006    2    3    3    0    0 -0.62319166738E+01  0.37380733398E+01 -0.74203193316E+02  0.95702771068E+02  0.60000804279E+02 0.  0.
    9000007    2    3    3    0    0  0.62319166738E+01 -0.37380733398E+01 -0.13663951833E+03  0.14940947033E+03  0.60000182331E+02 0.  0.
          5    1    4    4  501    0 -0.11894864148E+01 -0.27702692713E+02 -0.31506563002E+02  0.42232778427E+02  0.47000000000E+01 0.  1.
         -5    1    4    4    0  501 -0.50424302590E+01  0.31440766052E+02 -0.42696630314E+02  0.53469992641E+02  0.47000000000E+01 0.  1.
         12    1    5    5    0    0 -0.18994678620E+02 -0.11946734981E+02 -0.10826196783E+03  0.11056299548E+03  0.00000000000E+00 0. -1.
        -12    1    5    5    0    0  0.25226595293E+02  0.82086616408E+01 -0.28377550498E+02  0.38846474850E+02  0.00000000000E+00 0. -1.
<mgrwt>
<rscale>  0 0.12500145E+03</rscale>
<asrwt>0</asrwt>
<pdfrwt beam="1">  1       21 0.26361178E-02 0.12500145E+03</pdfrwt>
<pdfrwt beam="2">  1       21 0.35073456E-01 0.12500145E+03</pdfrwt>
<totfact> 0.60339239E+06</totfact>
</mgrwt>
</event>
<event>
 9    1  0.4541185E-002  0.1250016E+03  0.7818608E-02  0.1235067E+00
         21   -1    0    0  503  502  0.00000000000E+00  0.00000000000E+00  0.17636471123E+03  0.17636471123E+03  0.00000000000E+00 0.  1.
         21   -1    0    0  502  503 -0.00000000000E+00 -0.00000000000E+00 -0.22149257052E+02  0.22149257052E+02  0.00000000000E+00 0.  1.
         25    2    1    2    0    0  0.00000000000E+00 -0.17763568394E-14  0.15421545418E+03  0.19851396828E+03  0.12500155717E+03 0.  0.
    9000006    2    3    3    0    0  0.80354924574E+01  0.13626135401E+02  0.89008296708E+02  0.10850176898E+03  0.59999302369E+02 0.  0.
    9000007    2    3    3    0    0 -0.80354924574E+01 -0.13626135401E+02  0.65207157468E+02  0.90012199296E+02  0.59999849434E+02 0.  0.
          5    1    4    4  501    0  0.20728166632E+02  0.82198696073E+01  0.51196664559E+01  0.23356458056E+02  0.47000000000E+01 0.  1.
         -5    1    4    4    0  501 -0.12692674175E+02  0.54062657942E+01  0.83888630252E+02  0.85145310929E+02  0.47000000000E+01 0.  1.
         12    1    5    5    0    0  0.16911516844E+01 -0.12352040299E+02  0.75071960013E+02  0.76100145031E+02  0.00000000000E+00 0.  1.
        -12    1    5    5    0    0 -0.97266441419E+01 -0.12740951027E+01 -0.98648025458E+01  0.13912054265E+02  0.00000000000E+00 0.  1.
<mgrwt>
<rscale>  0 0.12500156E+03</rscale>
<asrwt>0</asrwt>
<pdfrwt beam="1">  1       21 0.27133032E-01 0.12500156E+03</pdfrwt>
<pdfrwt beam="2">  1       21 0.34075781E-02 0.12500156E+03</pdfrwt>
<totfact> 0.65085900E+06</totfact>
</mgrwt>
</event>
<event>
 9    1  0.4541185E-002  0.1250000E+03  0.7818608E-02  0.1235069E+00
         21   -1    0    0  503  502  0.00000000000E+00  0.00000000000E+00  0.85833606787E+01  0.85833606787E+01  0.00000000000E+00 0. -1.
         21   -1    0    0  502  503 -0.00000000000E+00 -0.00000000000E+00 -0.45509571676E+03  0.45509571676E+03  0.00000000000E+00 0. -1.
         25    2    1    2    0    0  0.55511151231E-15 -0.17763568394E-14 -0.44651235608E+03  0.46367907744E+03  0.12500001089E+03 0.  0.
    9000006    2    3    3    0    0  0.56139252410E+00  0.82391461288E+01 -0.16602676722E+03  0.17672896948E+03  0.60000354410E+02 0.  0.
    9000007    2    3    3    0    0 -0.56139252410E+00 -0.82391461288E+01 -0.28048558886E+03  0.28695010796E+03  0.60000001737E+02 0.  0.
          5    1    4    4  501    0 -0.28925541602E+02  0.90003134972E+01 -0.80829876475E+02  0.86447970080E+02  0.47000000000E+01 0. -1.
         -5    1    4    4    0  501  0.29486934126E+02 -0.76116736837E+00 -0.85196890744E+02  0.90280999398E+02  0.47000000000E+01 0. -1.
         12    1    5    5    0    0 -0.12043962998E+01  0.32788066886E+01 -0.27337818549E+03  0.27340050008E+03  0.00000000000E+00 0.  1.
        -12    1    5    5    0    0  0.64300377568E+00 -0.11517952817E+02 -0.71074033742E+01  0.13549607879E+02  0.00000000000E+00 0.  1.
<mgrwt>
<rscale>  0 0.12500001E+03</rscale>
<asrwt>0</asrwt>
<pdfrwt beam="1">  1       21 0.13205166E-02 0.12500001E+03</pdfrwt>
<pdfrwt beam="2">  1       21 0.70014748E-01 0.12500001E+03</pdfrwt>
<totfact> 0.44084878E+06</totfact>
</mgrwt>
</event>
<event>
 9    1  0.4541185E-002  0.1250017E+03  0.7818608E-02  0.1235067E+00
         21   -1    0    0  503  502  0.00000000000E+00  0.00000000000E+00  0.43299133277E+02  0.43299133277E+02  0.00000000000E+00 0.  1.
         21   -1    0    0  502  503 -0.00000000000E+00 -0.00000000000E+00 -0.90217840006E+02  0.90217840006E+02  0.00000000000E+00 0.  1.
         25    2    1    2    0    0 -0.17763568394E-14  0.00000000000E+00 -0.46918706729E+02  0.13351697328E+03  0.12500166844E+03 0.  0.
    9000006    2    3    3    0    0 -0.48444672677E+01  0.15113265201E+02 -0.31335380143E+02  0.69526359802E+02  0.60001075078E+02 0.  0.
    9000007    2    3    3    0    0  0.48444672677E+01 -0.15113265201E+02 -0.15583326586E+02  0.63990613481E+02  0.60000657480E+02 0.  0.
          5    1    4    4  501    0  0.10349061654E+02  0.56924498482E+01 -0.44857327540E+02  0.46623780375E+02  0.47000000000E+01 0.  1.
         -5    1    4    4    0  501 -0.15193528922E+02  0.94208153527E+01  0.13521947397E+02  0.22902579427E+02  0.47000000000E+01 0.  1.
         12    1    5    5    0    0  0.25376464502E+02  0.11612838011E+02 -0.10917242217E+02  0.29966800546E+02  0.00000000000E+00 0.  1.
        -12    1    5    5    0    0 -0.20531997235E+02 -0.26726103212E+02 -0.46660843692E+01  0.34023812936E+02  0.00000000000E+00 0.  1.
<mgrwt>
<rscale>  0 0.12500167E+03</rscale>
<asrwt>0</asrwt>
<pdfrwt beam="1">  1       21 0.66614051E-02 0.12500167E+03</pdfrwt>
<pdfrwt beam="2">  1       21 0.13879668E-01 0.12500167E+03</pdfrwt>
<totfact> 0.72890340E+06</totfact>
</mgrwt>
</event>
<event>
 9    1  0.4541185E-002  0.1249995E+03  0.7818608E-02  0.1235070E+00
         21   -1    0    0  503  502  0.00000000000E+00  0.00000000000E+00  0.28178893903E+03  0.28178893903E+03  0.00000000000E+00 0. -1.
         21   -1    0    0  502  503 -0.00000000000E+00 -0.00000000000E+00 -0.13862207179E+02  0.13862207179E+02  0.00000000000E+00 0. -1.
         25    2    1    2    0    0  0.00000000000E+00 -0.35527136788E-14  0.26792673186E+03  0.29565114621E+03  0.12499946646E+03 0.  0.
    9000006    2    3    3    0    0  0.85265991257E+01  0.55470803056E+01  0.10028796638E+03  0.11730821188E+03  0.60000561509E+02 0.  0.
    9000007    2    3    3    0    0 -0.85265991257E+01 -0.55470803056E+01  0.16763876548E+03  0.17834293434E+03  0.59999779529E+02 0.  0.
          5    1    4    4  501    0 -0.67886457174E+01  0.30279218978E+02  0.52439879627E+02  0.61114219196E+02  0.47000000000E+01 0.  1.
         -5    1    4    4    0  501  0.15315244843E+02 -0.24732138673E+02  0.47848086749E+02  0.56193992681E+02  0.47000000000E+01 0.  1.
         12    1    5    5    0    0 -0.15175008798E+01  0.10561092811E+02  0.15789403894E+03  0.15825412166E+03  0.00000000000E+00 0. -1.
        -12    1    5    5    0    0 -0.70090982458E+01 -0.16108173117E+02  0.97447265428E+01  0.20088812677E+02  0.00000000000E+00 0. -1.
<mgrwt>
<rscale>  0 0.12499947E+03</rscale>
<asrwt>0</asrwt>
<pdfrwt beam="1">  1       21 0.43352140E-01 0.12499947E+03</pdfrwt>
<pdfrwt beam="2">  1       21 0.21326475E-02 0.12499947E+03</pdfrwt>
<totfact> 0.55820278E+06</totfact>
</mgrwt>
</event>
<event>
 9    1  0.4541185E-002  0.1250011E+03  0.7818608E-02  0.1235068E+00
         21   -1    0    0  503  502  0.00000000000E+00  0.00000000000E+00  0.55319640556E+02  0.55319640556E+02  0.00000000000E+00 0.  1.
         21   -1    0    0  502  503 -0.00000000000E+00 -0.00000000000E+00 -0.70613551368E+02  0.70613551368E+02  0.00000000000E+00 0.  1.
         25    2    1    2    0    0  0.00000000000E+00  0.00000000000E+00 -0.15293910811E+02  0.12593319192E+03  0.12500106048E+03 0.  0.
    9000006    2    3    3    0    0  0.13840044142E+02  0.83432067864E+01 -0.14425702031E+02  0.63789439531E+02  0.59998631611E+02 0.  0.
    9000007    2    3    3    0    0 -0.13840044142E+02 -0.83432067864E+01 -0.86820878063E+00  0.62143752393E+02  0.59999468778E+02 0.  0.
          5    1    4    4  501    0 -0.12833346039E+02  0.24641496309E+02 -0.15503075107E+02  0.32161054844E+02  0.47000000000E+01 0. -1.
         -5    1    4    4    0  501  0.26673390181E+02 -0.16298289523E+02  0.10773730766E+01  0.31628384687E+02  0.47000000000E+01 0. -1.
         12    1    5    5    0    0 -0.30790730864E+02  0.27502006212E+01  0.16870362196E+02  0.35217067329E+02  0.00000000000E+00 0. -1.
        -12    1    5    5    0    0  0.16950686722E+02 -0.11093407408E+02 -0.17738570977E+02  0.26926685064E+02  0.00000000000E+00 0. -1.
<mgrwt>
<rscale>  0 0.12500106E+03</rscale>
<asrwt>0</asrwt>
<pdfrwt beam="1">  1       21 0.85107140E-02 0.12500106E+03</pdfrwt>
<pdfrwt beam="2">  1       21 0.10863623E-01 0.12500106E+03</pdfrwt>
<totfact> 0.73913257E+06</totfact>
</mgrwt>
</event>
<event>
 9    1  0.4541185E-002  0.1249994E+03  0.7818608E-02  0.1235070E+00
         21   -1    0    0  503  502  0.00000000000E+00  0.00000000000E+00  0.54294717867E+03  0.54294717867E+03  0.00000000000E+00 0. -1.
         21   -1    0    0  502  503 -0.00000000000E+00 -0.00000000000E+00 -0.71944658659E+01  0.71944658659E+01  0.00000000000E+00 0. -1.
         25    2    1    2    0    0  0.35527136788E-14  0.00000000000E+00  0.53575271281E+03  0.55014164454E+03  0.12499943910E+03 0.  0.
    9000006    2    3    3    0    0  0.11643876464E+02  0.12672905652E+02  0.28178445798E+03  0.28861527461E+03  0.60000946540E+02 0.  0.
    9000007    2    3    3    0    0 -0.11643876464E+02 -0.12672905652E+02  0.25396825483E+03  0.26152636992E+03  0.59999877571E+02 0.  0.
          5    1    4    4  501    0 -0.94508983150E+01 -0.18583635223E+02  0.62259941175E+02  0.65825992223E+02  0.47000000000E+01 0. -1.
         -5    1    4    4    0  501  0.21094774779E+02  0.31256540875E+02  0.21952451680E+03  0.22278928239E+03  0.47000000000E+01 0. -1.
         12    1    5    5    0    0  0.10308260016E+02  0.16521166353E+02  0.40296939914E+02  0.44755474845E+02  0.00000000000E+00 0. -1.
        -12    1    5    5    0    0 -0.21952136479E+02 -0.29194072004E+02  0.21367131491E+03  0.21677089508E+03  0.00000000000E+00 0. -1.
<mgrwt>
<rscale>  0 0.12499944E+03</rscale>
<asrwt>0</asrwt>
<pdfrwt beam="1">  1       21 0.83530303E-01 0.12499944E+03</pdfrwt>
<pdfrwt beam="2">  1       21 0.11068413E-02 0.12499944E+03</pdfrwt>
<totfact> 0.39449638E+06</totfact>
</mgrwt>
</event>
<event>
 9    1  0.4541185E-002  0.1249860E+03  0.7818608E-02  0.1235091E+00
         21   -1    0    0  503  502  0.00000000000E+00  0.00000000000E+00  0.96445351077E+02  0.96445351077E+02  0.00000000000E+00 0. -1.
         21   -1    0    0  502  503 -0.00000000000E+00 -0.00000000000E+00 -0.40493115083E+02  0.40493115083E+02  0.00000000000E+00 0. -1.
         25    2    1    2    0    0  0.00000000000E+00 -0.17763568394E-14  0.55952235994E+02  0.13693846616E+03  0.12498596242E+03 0.  0.
    9000006    2    3    3    0    0  0.71576916495E+01  0.66716620033E+00  0.45422827629E+02  0.75596423055E+02  0.59999235398E+02 0.  0.
    9000007    2    3    3    0    0 -0.71576916495E+01 -0.66716620033E+00  0.10529408365E+02  0.61342043105E+02  0.60002501209E+02 0.  0.
          5    1    4    4  501    0 -0.74376392072E+01 -0.27080358119E+02  0.24948248382E+02  0.37857223487E+02  0.47000000000E+01 0.  1.
         -5    1    4    4    0  501  0.14595330857E+02  0.27747524319E+02  0.20474579247E+02  0.37739199567E+02  0.47000000000E+01 0.  1.
         12    1    5    5    0    0  0.20647554885E+02 -0.14808557791E+02 -0.59005341602E+01  0.26085076384E+02  0.00000000000E+00 0. -1.
        -12    1    5    5    0    0 -0.27805246535E+02  0.14141391591E+02  0.16429942525E+02  0.35256966721E+02  0.00000000000E+00 0. -1.
<mgrwt>
<rscale>  0 0.12498596E+03</rscale>
<asrwt>0</asrwt>
<pdfrwt beam="1">  1       21 0.14837746E-01 0.12498596E+03</pdfrwt>
<pdfrwt beam="2">  1       21 0.62297100E-02 0.12498596E+03</pdfrwt>
<totfact> 0.72466748E+06</totfact>
</mgrwt>
</event>
<event>
 9    1  0.4541185E-002  0.1250007E+03  0.7818608E-02  0.1235068E+00
         21   -1    0    0  503  502  0.00000000000E+00  0.00000000000E+00  0.74947010028E+03  0.74947010028E+03  0.00000000000E+00 0.  1.
         21   -1    0    0  502  503 -0.00000000000E+00 -0.00000000000E+00 -0.52120744143E+01  0.52120744143E+01  0.00000000000E+00 0.  1.
         25    2    1    2    0    0 -0.35527136788E-14 -0.35527136788E-14  0.74425802586E+03  0.75468217469E+03  0.12500070294E+03 0.  0.
    9000006    2    3    3    0    0  0.29083536132E+01  0.14528279738E+02  0.42827071959E+03  0.43270699632E+03  0.60000049792E+02 0.  0.
    9000007    2    3    3    0    0 -0.29083536132E+01 -0.14528279738E+02  0.31598730627E+03  0.32197517837E+03  0.60004235913E+02 0.  0.
          5    1    4    4  501    0 -0.89622166890E+01  0.15668135948E+02  0.40980079360E+03  0.41022505073E+03  0.47000000000E+01 0.  1.
         -5    1    4    4    0  501  0.11870570302E+02 -0.11398562097E+01  0.18469925989E+02  0.22481945590E+02  0.47000000000E+01 0.  1.
         12    1    5    5    0    0  0.13134791735E+02  0.12429388486E+02  0.22512188866E+03  0.22584702169E+03  0.00000000000E+00 0. -1.
        -12    1    5    5    0    0 -0.16043145349E+02 -0.26957668224E+02  0.90865417610E+02  0.96128156678E+02  0.00000000000E+00 0. -1.
<mgrwt>
<rscale>  0 0.12500070E+03</rscale>
<asrwt>0</asrwt>
<pdfrwt beam="1">  1       21 0.11530301E+00 0.12500070E+03</pdfrwt>
<pdfrwt beam="2">  1       21 0.80185820E-03 0.12500070E+03</pdfrwt>
<totfact> 0.30904343E+06</totfact>
</mgrwt>
</event>
<event>
 9    1  0.4541185E-002  0.1249897E+03  0.7818608E-02  0.1235085E+00
         21   -1    0    0  503  502  0.00000000000E+00  0.00000000000E+00  0.39759215392E+03  0.39759215392E+03  0.00000000000E+00 0. -1.
         21   -1    0    0  502  503 -0.00000000000E+00 -0.00000000000E+00 -0.98231453724E+01  0.98231453724E+01  0.00000000000E+00 0. -1.
         25    2    1    2    0    0  0.44408920985E-15  0.26645352591E-14  0.38776900854E+03  0.40741529929E+03  0.12498968800E+03 0.  0.
    9000006    2    3    3    0    0  0.25525513643E+01 -0.69332792850E+01  0.24552787932E+03  0.25286063901E+03  0.59999811295E+02 0.  0.
    9000007    2    3    3    0    0 -0.25525513643E+01  0.69332792850E+01  0.14224112922E+03  0.15455466028E+03  0.60000152432E+02 0.  0.
          5    1    4    4  501    0 -0.14332810768E+02 -0.11931030174E+02  0.24808204231E+02  0.31389742635E+02  0.47000000000E+01 0. -1.
         -5    1    4    4    0  501  0.16885362133E+02  0.49977508887E+01  0.22071967509E+03  0.22147089637E+03  0.47000000000E+01 0. -1.
         12    1    5    5    0    0 -0.20788265131E+01 -0.25788615065E+02  0.44428120239E+02  0.51412372583E+02  0.00000000000E+00 0.  1.
        -12    1    5    5    0    0 -0.47372485121E+00  0.32721894350E+02  0.97813008986E+02  0.10314228770E+03  0.00000000000E+00 0.  1.
<mgrwt>
<rscale>  0 0.12498969E+03</rscale>
<asrwt>0</asrwt>
<pdfrwt beam="1">  1       21 0.61168011E-01 0.12498969E+03</pdfrwt>
<pdfrwt beam="2">  1       21 0.15112534E-02 0.12498969E+03</pdfrwt>
<totfact> 0.47565620E+06</totfact>
</mgrwt>
</event>
<event>
 9    1  0.4541185E-002  0.1250034E+03  0.7818608E-02  0.1235064E+00
         21   -1    0    0  503  502  0.00000000000E+00  0.00000000000E+00  0.48157955120E+02  0.48157955120E+02  0.00000000000E+00 0. -1.
         21   -1    0    0  502  503 -0.00000000000E+00 -0.00000000000E+00 -0.81117721446E+02  0.81117721446E+02  0.00000000000E+00 0. -1.
         25    2    1    2    0    0  0.00000000000E+00  0.00000000000E+00 -0.32959766326E+02  0.12927567657E+03  0.12500341737E+03 0.  0.
    9000006    2    3    3    0    0 -0.15646863360E+02  0.53007200325E+01 -0.22473299274E+02  0.66165522903E+02  0.59999210619E+02 0.  0.
    9000007    2    3    3    0    0  0.15646863360E+02 -0.53007200325E+01 -0.10486467052E+02  0.63110153663E+02  0.60000029485E+02 0.  0.
          5    1    4    4  501    0  0.10568607656E+02  0.25520971766E+02 -0.15447982197E+02  0.31996025091E+02  0.47000000000E+01 0. -1.
         -5    1    4    4    0  501 -0.26215471016E+02 -0.20220251733E+02 -0.70253170768E+01  0.34169497813E+02  0.47000000000E+01 0. -1.
         12    1    5    5    0    0 -0.11145116452E+02  0.21475049374E+02 -0.62982700733E+01  0.25001191417E+02  0.00000000000E+00 0.  1.
        -12    1    5    5    0    0  0.26791979812E+02 -0.26775769406E+02 -0.41881969792E+01  0.38108962246E+02  0.00000000000E+00 0.  1.
<mgrwt>
<rscale>  0 0.12500342E+03</rscale>
<asrwt>0</asrwt>
<pdfrwt beam="1">  1       21 0.74089162E-02 0.12500342E+03</pdfrwt>
<pdfrwt beam="2">  1       21 0.12479649E-01 0.12500342E+03</pdfrwt>
<totfact> 0.73455475E+06</totfact>
</mgrwt>
</event>
<event>
 9    1  0.4541185E-002  0.1250028E+03  0.7818608E-02  0.1235065E+00
         21   -1    0    0  503  502  0.00000000000E+00  0.00000000000E+00  0.26773523701E+02  0.26773523701E+02  0.00000000000E+00 0. -1.
         21   -1    0    0  502  503 -0.00000000000E+00 -0.00000000000E+00 -0.14590632102E+03  0.14590632102E+03  0.00000000000E+00 0. -1.
         25    2    1    2    0    0 -0.17763568394E-14  0.00000000000E+00 -0.11913279732E+03  0.17267984472E+03  0.12500282147E+03 0.  0.
    9000006    2    3    3    0    0 -0.79286669968E+01 -0.32780774526E+01 -0.80631883993E+02  0.10087506482E+03  0.60005570028E+02 0.  0.
    9000007    2    3    3    0    0  0.79286669968E+01  0.32780774526E+01 -0.38500913324E+02  0.71804779896E+02  0.59999971142E+02 0.  0.
          5    1    4    4  501    0 -0.31540977646E+02  0.26838421188E+01 -0.62280710338E+02  0.70021519261E+02  0.47000000000E+01 0.  1.
         -5    1    4    4    0  501  0.23612310649E+02 -0.59619195714E+01 -0.18351173655E+02  0.30853545561E+02  0.47000000000E+01 0.  1.
         12    1    5    5    0    0  0.23129000555E+02  0.47195363930E+01  0.63345742020E+01  0.24440775781E+02  0.00000000000E+00 0. -1.
        -12    1    5    5    0    0 -0.15200333559E+02 -0.14414589404E+01 -0.44835487526E+02  0.47364004115E+02  0.00000000000E+00 0. -1.
<mgrwt>
<rscale>  0 0.12500282E+03</rscale>
<asrwt>0</asrwt>
<pdfrwt beam="1">  1       21 0.41190037E-02 0.12500282E+03</pdfrwt>
<pdfrwt beam="2">  1       21 0.22447126E-01 0.12500282E+03</pdfrwt>
<totfact> 0.67996497E+06</totfact>
</mgrwt>
</event>
<event>
 9    1  0.4541185E-002  0.1250083E+03  0.7818608E-02  0.1235056E+00
         21   -1    0    0  503  502  0.00000000000E+00  0.00000000000E+00  0.33923889854E+01  0.33923889854E+01  0.00000000000E+00 0.  1.
         21   -1    0    0  502  503 -0.00000000000E+00 -0.00000000000E+00 -0.11516283298E+04  0.11516283298E+04  0.00000000000E+00 0.  1.
         25    2    1    2    0    0  0.17763568394E-14  0.00000000000E+00 -0.11482359408E+04  0.11550207188E+04  0.12500833990E+03 0.  0.
    9000006    2    3    3    0    0 -0.24542282967E+01 -0.10087877605E+02 -0.70445889210E+03  0.70708568668E+03  0.60000409456E+02 0.  0.
    9000007    2    3    3    0    0  0.24542282967E+01  0.10087877605E+02 -0.44377704870E+03  0.44793503210E+03  0.59999462599E+02 0.  0.
          5    1    4    4  501    0  0.25232894911E+02  0.32979885815E+01 -0.44799417367E+03  0.44874095574E+03  0.47000000000E+01 0. -1.
         -5    1    4    4    0  501 -0.27687123208E+02 -0.13385866187E+02 -0.25646471843E+03  0.25834473094E+03  0.47000000000E+01 0. -1.
         12    1    5    5    0    0 -0.28369704560E+01  0.69548877881E+01 -0.44120610410E+03  0.44127003655E+03  0.00000000000E+00 0.  1.
        -12    1    5    5    0    0  0.52911987526E+01  0.31329898171E+01 -0.25709446048E+01  0.66649955435E+01  0.00000000000E+00 0.  1.
<mgrwt>
<rscale>  0 0.12500834E+03</rscale>
<asrwt>0</asrwt>
<pdfrwt beam="1">  1       21 0.52190566E-03 0.12500834E+03</pdfrwt>
<pdfrwt beam="2">  1       21 0.17717370E+00 0.12500834E+03</pdfrwt>
<totfact> 0.20059278E+06</totfact>
</mgrwt>
</event>
<event>
 9    1  0.4541185E-002  0.1250012E+03  0.7818608E-02  0.1235067E+00
         21   -1    0    0  503  502  0.00000000000E+00  0.00000000000E+00  0.90235802551E+01  0.90235802551E+01  0.00000000000E+00 0.  1.
         21   -1    0    0  502  503 -0.00000000000E+00 -0.00000000000E+00 -0.43290189105E+03  0.43290189105E+03  0.00000000000E+00 0.  1.
         25    2    1    2    0    0 -0.35527136788E-14 -0.17763568394E-14 -0.42387831080E+03  0.44192547131E+03  0.12500119930E+03 0.  0.
    9000006    2    3    3    0    0  0.13999887071E+02  0.16186347346E+01 -0.24862832136E+03  0.25615361021E+03  0.60000108560E+02 0.  0.
    9000007    2    3    3    0    0 -0.13999887071E+02 -0.16186347346E+01 -0.17524998944E+03  0.18577186110E+03  0.60000072999E+02 0.  0.
          5    1    4    4  501    0 -0.41192545095E+01 -0.11119861154E+02 -0.21635049101E+03  0.21672619714E+03  0.47000000000E+01 0. -1.
         -5    1    4    4    0  501  0.18119141580E+02  0.12738495888E+02 -0.32277830354E+02  0.39427413071E+02  0.47000000000E+01 0. -1.
         12    1    5    5    0    0 -0.15237591237E+02 -0.21282006712E+02 -0.32789656694E+02  0.41955566764E+02  0.00000000000E+00 0. -1.
        -12    1    5    5    0    0  0.12377041659E+01  0.19663371978E+02 -0.14246033275E+03  0.14381629433E+03  0.00000000000E+00 0. -1.
<mgrwt>
<rscale>  0 0.12500120E+03</rscale>
<asrwt>0</asrwt>
<pdfrwt beam="1">  1       21 0.13882436E-02 0.12500120E+03</pdfrwt>
<pdfrwt beam="2">  1       21 0.66600268E-01 0.12500120E+03</pdfrwt>
<totfact> 0.45378010E+06</totfact>
</mgrwt>
</event>
<event>
 9    1  0.4541185E-002  0.1250010E+03  0.7818608E-02  0.1235068E+00
         21   -1    0    0  503  502  0.00000000000E+00  0.00000000000E+00  0.55196556463E+02  0.55196556463E+02  0.00000000000E+00 0.  1.
         21   -1    0    0  502  503 -0.00000000000E+00 -0.00000000000E+00 -0.70770970850E+02  0.70770970850E+02  0.00000000000E+00 0.  1.
         25    2    1    2    0    0  0.00000000000E+00  0.17763568394E-14 -0.15574414387E+02  0.12596752731E+03  0.12500102221E+03 0.  0.
    9000006    2    3    3    0    0  0.17393565934E+02  0.18563866262E+01 -0.72805905124E+01  0.62921351933E+02  0.60000893524E+02 0.  0.
    9000007    2    3    3    0    0 -0.17393565934E+02 -0.18563866262E+01 -0.82938238745E+01  0.63046175380E+02  0.60000420069E+02 0.  0.
          5    1    4    4  501    0  0.98482356917E+01  0.12975119094E+02  0.23518078984E+02  0.28991921303E+02  0.47000000000E+01 0. -1.
         -5    1    4    4    0  501  0.75453302420E+01 -0.11118732468E+02 -0.30798669496E+02  0.33929430630E+02  0.47000000000E+01 0. -1.
         12    1    5    5    0    0  0.28176145058E+01  0.15763523919E+02 -0.26269124666E+02  0.30765151528E+02  0.00000000000E+00 0.  1.
        -12    1    5    5    0    0 -0.20211180439E+02 -0.17619910546E+02  0.17975300791E+02  0.32281023852E+02  0.00000000000E+00 0.  1.
<mgrwt>
<rscale>  0 0.12500102E+03</rscale>
<asrwt>0</asrwt>
<pdfrwt beam="1">  1       21 0.84917780E-02 0.12500102E+03</pdfrwt>
<pdfrwt beam="2">  1       21 0.10887842E-01 0.12500102E+03</pdfrwt>
<totfact> 0.73908590E+06</totfact>
</mgrwt>
</event>
<event>
 9    1  0.4541185E-002  0.1250023E+03  0.7818608E-02  0.1235066E+00
         21   -1    0    0  503  502  0.00000000000E+00  0.00000000000E+00  0.49345090958E+01  0.49345090958E+01  0.00000000000E+00 0. -1.
         21   -1    0    0  502  503 -0.00000000000E+00 -0.00000000000E+00 -0.79164762866E+03  0.79164762866E+03  0.00000000000E+00 0. -1.
         25    2    1    2    0    0  0.00000000000E+00  0.17763568394E-14 -0.78671311956E+03  0.79658213776E+03  0.12500227877E+03 0.  0.
    9000006    2    3    3    0    0  0.41898570834E+01  0.12431829930E+02 -0.46729496480E+03  0.47131419607E+03  0.60003183229E+02 0.  0.
    9000007    2    3    3    0    0 -0.41898570834E+01 -0.12431829930E+02 -0.31941815477E+03  0.32526794169E+03  0.59993091218E+02 0.  0.
          5    1    4    4  501    0 -0.91974820507E+01 -0.84594002308E+01 -0.38500390340E+03  0.38523531868E+03  0.47000000000E+01 0. -1.
         -5    1    4    4    0  501  0.13387339134E+02  0.20891230161E+02 -0.82291061395E+02  0.86078877387E+02  0.47000000000E+01 0. -1.
         12    1    5    5    0    0 -0.10869268845E+02  0.19135092301E+02 -0.61096872931E+02  0.64939361288E+02  0.00000000000E+00 0.  1.
        -12    1    5    5    0    0  0.66794117612E+01 -0.31566922231E+02 -0.25832128184E+03  0.26032858040E+03  0.00000000000E+00 0.  1.
<mgrwt>
<rscale>  0 0.12500228E+03</rscale>
<asrwt>0</asrwt>
<pdfrwt beam="1">  1       21 0.75915568E-03 0.12500228E+03</pdfrwt>
<pdfrwt beam="2">  1       21 0.12179187E+00 0.12500228E+03</pdfrwt>
<totfact> 0.29474724E+06</totfact>
</mgrwt>
</event>
<event>
 9    1  0.4541185E-002  0.1250467E+03  0.7818608E-02  0.1234996E+00
         21   -1    0    0  503  502  0.00000000000E+00  0.00000000000E+00  0.14139080600E+03  0.14139080600E+03  0.00000000000E+00 0.  1.
         21   -1    0    0  502  503 -0.00000000000E+00 -0.00000000000E+00 -0.27647985569E+02  0.27647985569E+02  0.00000000000E+00 0.  1.
         25    2    1    2    0    0  0.00000000000E+00  0.17763568394E-14  0.11374282044E+03  0.16903879157E+03  0.12504672669E+03 0.  0.
    9000006    2    3    3    0    0 -0.16876023085E+02 -0.16389405203E+01  0.50566839932E+02  0.80277649809E+02  0.60000078975E+02 0.  0.
    9000007    2    3    3    0    0  0.16876023085E+02  0.16389405203E+01  0.63175980504E+02  0.88761141765E+02  0.59998745766E+02 0.  0.
          5    1    4    4  501    0 -0.38809117990E+02 -0.27938497891E+01  0.37756520234E+02  0.54420566480E+02  0.47000000000E+01 0. -1.
         -5    1    4    4    0  501  0.21933094905E+02  0.11549092689E+01  0.12810319697E+02  0.25857083329E+02  0.47000000000E+01 0. -1.
         12    1    5    5    0    0 -0.46034720665E+01 -0.26332872587E+02  0.22643886176E+02  0.35033665451E+02  0.00000000000E+00 0.  1.
        -12    1    5    5    0    0  0.21479495152E+02  0.27971813107E+02  0.40532094328E+02  0.53727476314E+02  0.00000000000E+00 0.  1.
<mgrwt>
<rscale>  0 0.12504673E+03</rscale>
<asrwt>0</asrwt>
<pdfrwt beam="1">  1       21 0.21752431E-01 0.12504673E+03</pdfrwt>
<pdfrwt beam="2">  1       21 0.42535363E-02 0.12504673E+03</pdfrwt>
<totfact> 0.68350412E+06</totfact>
</mgrwt>
</event>
<event>
 9    1  0.4541185E-002  0.1249990E+03  0.7818608E-02  0.1235071E+00
         21   -1    0    0  503  502  0.00000000000E+00  0.00000000000E+00  0.12026150558E+02  0.12026150558E+02  0.00000000000E+00 0.  1.
         21   -1    0    0  502  503 -0.00000000000E+00 -0.00000000000E+00 -0.32480782930E+03  0.32480782930E+03  0.00000000000E+00 0.  1.
         25    2    1    2    0    0 -0.17763568394E-14 -0.71054273576E-14 -0.31278167874E+03  0.33683397985E+03  0.12499900572E+03 0.  0.
    9000006    2    3    3    0    0 -0.19198715432E+01 -0.17392164085E+02 -0.15641641715E+03  0.16844071213E+03  0.60000038916E+02 0.  0.
    9000007    2    3    3    0    0  0.19198715432E+01  0.17392164085E+02 -0.15636526159E+03  0.16839326773E+03  0.60000202545E+02 0.  0.
          5    1    4    4  501    0 -0.25888631884E+02 -0.15576403412E+02 -0.12455483740E+03  0.12825304333E+03  0.47000000000E+01 0. -1.
         -5    1    4    4    0  501  0.23968760341E+02 -0.18157606728E+01 -0.31861579747E+02  0.40187668794E+02  0.47000000000E+01 0. -1.
         12    1    5    5    0    0 -0.30574601950E+01  0.39388589552E+02 -0.10884118736E+03  0.11578952075E+03  0.00000000000E+00 0. -1.
        -12    1    5    5    0    0  0.49773317383E+01 -0.21996425467E+02 -0.47524074228E+02  0.52603746975E+02  0.00000000000E+00 0. -1.
<mgrwt>
<rscale>  0 0.12499901E+03</rscale>
<asrwt>0</asrwt>
<pdfrwt beam="1">  1       21 0.18501772E-02 0.12499901E+03</pdfrwt>
<pdfrwt beam="2">  1       21 0.49970430E-01 0.12499901E+03</pdfrwt>
<totfact> 0.52527038E+06</totfact>
</mgrwt>
</event>
<event>
 9    1  0.4541185E-002  0.1250007E+03  0.7818608E-02  0.1235068E+00
         21   -1    0    0  503  502  0.00000000000E+00  0.00000000000E+00  0.12464050142E+02  0.12464050142E+02  0.00000000000E+00 0. -1.
         21   -1    0    0  502  503 -0.00000000000E+00 -0.00000000000E+00 -0.31340472508E+03  0.31340472508E+03  0.00000000000E+00 0. -1.
         25    2    1    2    0    0  0.17763568394E-14 -0.35527136788E-14 -0.30094067494E+03  0.32586877523E+03  0.12500067533E+03 0.  0.
    9000006    2    3    3    0    0  0.65799261630E+01  0.10293879773E+02 -0.11782935626E+03  0.13279095951E+03  0.60003519409E+02 0.  0.
    9000007    2    3    3    0    0 -0.65799261630E+01 -0.10293879773E+02 -0.18311131868E+03  0.19307781572E+03  0.60000237530E+02 0.  0.
          5    1    4    4  501    0  0.17267261605E+02 -0.19050845894E+01 -0.49628723451E+01  0.18668362878E+02  0.47000000000E+01 0.  1.
         -5    1    4    4    0  501 -0.10687335442E+02  0.12198964362E+02 -0.11286648391E+03  0.11412259663E+03  0.47000000000E+01 0.  1.
         12    1    5    5    0    0 -0.96679730821E+01 -0.33811679641E+02 -0.13401065963E+03  0.13854802877E+03  0.00000000000E+00 0.  1.
        -12    1    5    5    0    0  0.30880469191E+01  0.23517799868E+02 -0.49100659057E+02  0.54529786945E+02  0.00000000000E+00 0.  1.
<mgrwt>
<rscale>  0 0.12500068E+03</rscale>
<asrwt>0</asrwt>
<pdfrwt beam="1">  1       21 0.19175462E-02 0.12500068E+03</pdfrwt>
<pdfrwt beam="2">  1       21 0.48216111E-01 0.12500068E+03</pdfrwt>
<totfact> 0.53370620E+06</totfact>
</mgrwt>
</event>
<event>
 8    1  0.4541185E-002  0.1243575E+03  0.7818608E-02  0.1236077E+00
         21   -1    0    0  503  502  0.00000000000E+00  0.00000000000E+00  0.32512579319E+02  0.32512579319E+02  0.00000000000E+00 0.  1.
         21   -1    0    0  502  503 -0.00000000000E+00 -0.00000000000E+00 -0.11891393498E+03  0.11891393498E+03  0.00000000000E+00 0.  1.
    9000006    2    1    2    0    0  0.65535662238E+01 -0.14940745639E+02 -0.43466841636E+02  0.75865261184E+02  0.59999970185E+02 0.  0.
    9000007    2    1    2    0    0 -0.65535662238E+01  0.14940745639E+02 -0.42934514021E+02  0.75561253111E+02  0.59999628058E+02 0.  0.
          5    1    3    3  501    0 -0.98282975217E+01  0.20294617643E+02 -0.15681803422E+02  0.27865317081E+02  0.47000000000E+01 0.  1.
         -5    1    3    3    0  501  0.16381863745E+02 -0.35235363282E+02 -0.27785038214E+02  0.47999944103E+02  0.47000000000E+01 0.  1.
         12    1    4    4    0    0  0.11804364357E+02  0.24595399626E+02 -0.47076134772E+02  0.54409917899E+02  0.00000000000E+00 0. -1.
        -12    1    4    4    0    0 -0.18357930581E+02 -0.96546539876E+01  0.41416207511E+01  0.21151335213E+02  0.00000000000E+00 0. -1.
<mgrwt>
<rscale>  0 0.12435753E+03</rscale>
<asrwt>0</asrwt>
<pdfrwt beam="1">  1       21 0.50019354E-02 0.12435753E+03</pdfrwt>
<pdfrwt beam="2">  1       21 0.18294451E-01 0.12435753E+03</pdfrwt>
<totfact> 0.71746803E+06</totfact>
</mgrwt>
</event>
<event>
 9    1  0.4541185E-002  0.1249977E+03  0.7818608E-02  0.1235073E+00
         21   -1    0    0  503  502  0.00000000000E+00  0.00000000000E+00  0.17862872685E+04  0.17862872685E+04  0.00000000000E+00 0.  1.
         21   -1    0    0  502  503 -0.00000000000E+00 -0.00000000000E+00 -0.21867162905E+01  0.21867162905E+01  0.00000000000E+00 0.  1.
         25    2    1    2    0    0  0.00000000000E+00  0.00000000000E+00  0.17841005523E+04  0.17884739848E+04  0.12499765549E+03 0.  0.
    9000006    2    3    3    0    0 -0.10393210981E+02 -0.82127801757E+01  0.72855064122E+03  0.73113725442E+03  0.60001494774E+02 0.  0.
    9000007    2    3    3    0    0  0.10393210981E+02  0.82127801757E+01  0.10555499110E+04  0.10573367304E+04  0.59998985189E+02 0.  0.
          5    1    4    4  501    0 -0.35063231414E+02 -0.29229025912E+01  0.45695808023E+03  0.45833475828E+03  0.47000000000E+01 0.  1.
         -5    1    4    4    0  501  0.24670020433E+02 -0.52898775846E+01  0.27159256099E+03  0.27280249614E+03  0.47000000000E+01 0.  1.
         12    1    5    5    0    0 -0.16620448478E+02  0.20277917818E+02  0.28059918861E+03  0.28182146460E+03  0.00000000000E+00 0. -1.
        -12    1    5    5    0    0  0.27013659459E+02 -0.12065137642E+02  0.77495072242E+03  0.77551526582E+03  0.00000000000E+00 0. -1.
<mgrwt>
<rscale>  0 0.12499766E+03</rscale>
<asrwt>0</asrwt>
<pdfrwt beam="1">  1       21 0.27481226E+00 0.12499766E+03</pdfrwt>
<pdfrwt beam="2">  1       21 0.33641932E-03 0.12499766E+03</pdfrwt>
<totfact> 0.10203870E+06</totfact>
</mgrwt>
</event>
<event>
 9    1  0.4541185E-002  0.1249406E+03  0.7818608E-02  0.1235162E+00
         21   -1    0    0  503  502  0.00000000000E+00  0.00000000000E+00  0.38576134077E+01  0.38576134077E+01  0.00000000000E+00 0.  1.
         21   -1    0    0  502  503 -0.00000000000E+00 -0.00000000000E+00 -0.10116454023E+04  0.10116454023E+04  0.00000000000E+00 0.  1.
         25    2    1    2    0    0  0.88817841970E-15 -0.35527136788E-14 -0.10077877889E+04  0.10155030157E+04  0.12494057576E+03 0.  0.
    9000006    2    3    3    0    0  0.65637987122E+01  0.14956719727E+02 -0.55247725738E+03  0.55596579084E+03  0.60000447816E+02 0.  0.
    9000007    2    3    3    0    0 -0.65637987122E+01 -0.14956719727E+02 -0.45531053153E+03  0.45953722489E+03  0.59999950162E+02 0.  0.
          5    1    4    4  501    0 -0.43327619726E+01  0.36175433166E+01 -0.67000598635E+01  0.99418432965E+01  0.47000000000E+01 0. -1.
         -5    1    4    4    0  501  0.10896560685E+02  0.11339176411E+02 -0.54577719752E+03  0.54602394754E+03  0.47000000000E+01 0. -1.
         12    1    5    5    0    0  0.40861279043E+01  0.12835222955E+02 -0.26803021197E+02  0.29997355464E+02  0.00000000000E+00 0. -1.
        -12    1    5    5    0    0 -0.10649926617E+02 -0.27791942682E+02 -0.42850751033E+03  0.42953986942E+03  0.00000000000E+00 0. -1.
<mgrwt>
<rscale>  0 0.12494058E+03</rscale>
<asrwt>0</asrwt>
<pdfrwt beam="1">  1       21 0.59347872E-03 0.12494058E+03</pdfrwt>
<pdfrwt beam="2">  1       21 0.15563782E+00 0.12494058E+03</pdfrwt>
<totfact> 0.23268630E+06</totfact>
</mgrwt>
</event>
<event>
 9    1  0.4541185E-002  0.1249978E+03  0.7818608E-02  0.1235073E+00
         21   -1    0    0  503  502  0.00000000000E+00  0.00000000000E+00  0.21400396766E+02  0.21400396766E+02  0.00000000000E+00 0. -1.
         21   -1    0    0  502  503 -0.00000000000E+00 -0.00000000000E+00 -0.18252510820E+03  0.18252510820E+03  0.00000000000E+00 0. -1.
         25    2    1    2    0    0  0.00000000000E+00 -0.35527136788E-14 -0.16112471143E+03  0.20392550496E+03  0.12499775574E+03 0.  0.
    9000006    2    3    3    0    0 -0.91198145426E+01 -0.13386418810E+02 -0.69773217558E+02  0.93438006220E+02  0.59999932434E+02 0.  0.
    9000007    2    3    3    0    0  0.91198145426E+01  0.13386418810E+02 -0.91351493871E+02  0.11048749874E+03  0.60000205997E+02 0.  0.
          5    1    4    4  501    0 -0.28421379732E+01 -0.35846020712E+02 -0.53434416004E+02  0.64578183335E+02  0.47000000000E+01 0. -1.
         -5    1    4    4    0  501 -0.62776765694E+01  0.22459601903E+02 -0.16338801554E+02  0.28859822885E+02  0.47000000000E+01 0. -1.
         12    1    5    5    0    0 -0.49526489308E+01  0.71389496099E+01  0.68637674191E+01  0.11072697781E+02  0.00000000000E+00 0.  1.
        -12    1    5    5    0    0  0.14072463473E+02  0.62474691997E+01 -0.98215261291E+02  0.99414800960E+02  0.00000000000E+00 0.  1.
<mgrwt>
<rscale>  0 0.12499776E+03</rscale>
<asrwt>0</asrwt>
<pdfrwt beam="1">  1       21 0.32923687E-02 0.12499776E+03</pdfrwt>
<pdfrwt beam="2">  1       21 0.28080787E-01 0.12499776E+03</pdfrwt>
<totfact> 0.64508027E+06</totfact>
</mgrwt>
</event>
<event>
 9    1  0.4541185E-002  0.1250004E+03  0.7818608E-02  0.1235069E+00
         21   -1    0    0  503  502  0.00000000000E+00  0.00000000000E+00  0.31657845048E+02  0.31657845048E+02  0.00000000000E+00 0.  1.
         21   -1    0    0  502  503 -0.00000000000E+00 -0.00000000000E+00 -0.12339047158E+03  0.12339047158E+03  0.00000000000E+00 0.  1.
         25    2    1    2    0    0  0.00000000000E+00  0.00000000000E+00 -0.91732626536E+02  0.15504831663E+03  0.12500042288E+03 0.  0.
    9000006    2    3    3    0    0 -0.58134959991E+00  0.76781141052E+01 -0.26372210386E+02  0.65990373117E+02  0.59999537164E+02 0.  0.
    9000007    2    3    3    0    0  0.58134959991E+00 -0.76781141052E+01 -0.65360416151E+02  0.89057943515E+02  0.60000349167E+02 0.  0.
          5    1    4    4  501    0  0.26471327561E+02  0.55072302193E+01  0.58558386215E+00  0.27449839271E+02  0.47000000000E+01 0. -1.
         -5    1    4    4    0  501 -0.27052677161E+02  0.21708838859E+01 -0.26957794248E+02  0.38540533846E+02  0.47000000000E+01 0. -1.
         12    1    5    5    0    0 -0.12026941578E+02  0.22026232352E+02 -0.43037041222E+02  0.49819565961E+02  0.00000000000E+00 0. -1.
        -12    1    5    5    0    0  0.12608291178E+02 -0.29704346458E+02 -0.22323374929E+02  0.39238377555E+02  0.00000000000E+00 0. -1.
<mgrwt>
<rscale>  0 0.12500042E+03</rscale>
<asrwt>0</asrwt>
<pdfrwt beam="1">  1       21 0.48704378E-02 0.12500042E+03</pdfrwt>
<pdfrwt beam="2">  1       21 0.18983149E-01 0.12500042E+03</pdfrwt>
<totfact> 0.70128900E+06</totfact>
</mgrwt>
</event>
<event>
 9    1  0.4541185E-002  0.1249957E+03  0.7818608E-02  0.1235076E+00
         21   -1    0    0  503  502  0.00000000000E+00  0.00000000000E+00  0.53667218874E+02  0.53667218874E+02  0.00000000000E+00 0.  1.
         21   -1    0    0  502  503 -0.00000000000E+00 -0.00000000000E+00 -0.72781543166E+02  0.72781543166E+02  0.00000000000E+00 0.  1.
         25    2    1    2    0    0  0.00000000000E+00 -0.35527136788E-14 -0.19114324292E+02  0.12644876204E+03  0.12499572804E+03 0.  0.
    9000006    2    3    3    0    0 -0.90922934261E+01  0.13304076981E+02 -0.16440636500E+02  0.64265088973E+02  0.60000323900E+02 0.  0.
    9000007    2    3    3    0    0  0.90922934261E+01 -0.13304076981E+02 -0.26736877916E+01  0.62183673067E+02  0.59999936046E+02 0.  0.
          5    1    4    4  501    0  0.67859305888E+01 -0.21597132915E+02 -0.95956418286E+01  0.25033005137E+02  0.47000000000E+01 0. -1.
         -5    1    4    4    0  501 -0.15878224015E+02  0.34901209896E+02 -0.68449946712E+01  0.39232083836E+02  0.47000000000E+01 0. -1.
         12    1    5    5    0    0 -0.20316021177E+01 -0.34040825480E+02 -0.12987343033E+02  0.36490769868E+02  0.00000000000E+00 0.  1.
        -12    1    5    5    0    0  0.11123895544E+02  0.20736748498E+02  0.10313655241E+02  0.25692903199E+02  0.00000000000E+00 0.  1.
<mgrwt>
<rscale>  0 0.12499573E+03</rscale>
<asrwt>0</asrwt>
<pdfrwt beam="1">  1       21 0.82564953E-02 0.12499573E+03</pdfrwt>
<pdfrwt beam="2">  1       21 0.11197160E-01 0.12499573E+03</pdfrwt>
<totfact> 0.73852439E+06</totfact>
</mgrwt>
</event>
<event>
 9    1  0.4541185E-002  0.1249902E+03  0.7818608E-02  0.1235085E+00
         21   -1    0    0  503  502  0.00000000000E+00  0.00000000000E+00  0.56281350585E+01  0.56281350585E+01  0.00000000000E+00 0. -1.
         21   -1    0    0  502  503 -0.00000000000E+00 -0.00000000000E+00 -0.69394919157E+03  0.69394919157E+03  0.00000000000E+00 0. -1.
         25    2    1    2    0    0  0.00000000000E+00  0.00000000000E+00 -0.68832105652E+03  0.69957732663E+03  0.12499023600E+03 0.  0.
    9000006    2    3    3    0    0 -0.14250988230E+02  0.49465203763E+01 -0.29470755238E+03  0.30113135102E+03  0.59999920066E+02 0.  0.
    9000007    2    3    3    0    0  0.14250988230E+02 -0.49465203763E+01 -0.39361350413E+03  0.39844597561E+03  0.60000384287E+02 0.  0.
          5    1    4    4  501    0 -0.28680682931E+02  0.20135716864E+02 -0.23573227562E+03  0.23836909287E+03  0.47000000000E+01 0. -1.
         -5    1    4    4    0  501  0.14429694701E+02 -0.15189196487E+02 -0.58975276761E+02  0.62762258151E+02  0.47000000000E+01 0. -1.
         12    1    5    5    0    0 -0.18081498216E+02 -0.16244977466E+02 -0.23033276757E+03  0.23161179523E+03  0.00000000000E+00 0. -1.
        -12    1    5    5    0    0  0.32332486446E+02  0.11298457089E+02 -0.16328073656E+03  0.16683418038E+03  0.00000000000E+00 0. -1.
<mgrwt>
<rscale>  0 0.12499024E+03</rscale>
<asrwt>0</asrwt>
<pdfrwt beam="1">  1       21 0.86586709E-03 0.12499024E+03</pdfrwt>
<pdfrwt beam="2">  1       21 0.10676139E+00 0.12499024E+03</pdfrwt>
<totfact> 0.32934417E+06</totfact>
</mgrwt>
</event>
<event>
 9    1  0.4541185E-002  0.1249987E+03  0.7818608E-02  0.1235071E+00
         21   -1    0    0  503  502  0.00000000000E+00  0.00000000000E+00  0.38492453680E+02  0.38492453680E+02  0.00000000000E+00 0.  1.
         21   -1    0    0  502  503 -0.00000000000E+00 -0.00000000000E+00 -0.10147888288E+03  0.10147888288E+03  0.00000000000E+00 0.  1.
         25    2    1    2    0    0 -0.35527136788E-14  0.00000000000E+00 -0.62986429200E+02  0.13997133656E+03  0.12499873917E+03 0.  0.
    9000006    2    3    3    0    0  0.16398696543E+02  0.37318190710E+01 -0.26078368518E+02  0.67549525210E+02  0.60000111080E+02 0.  0.
    9000007    2    3    3    0    0 -0.16398696543E+02 -0.37318190710E+01 -0.36908060682E+02  0.72421811351E+02  0.59998917441E+02 0.  0.
          5    1    4    4  501    0  0.22337750246E+02  0.13688572803E+02 -0.40496723397E+02  0.48460568686E+02  0.47000000000E+01 0.  1.
         -5    1    4    4    0  501 -0.59390537024E+01 -0.99567537322E+01  0.14418354879E+02  0.19088956524E+02  0.47000000000E+01 0.  1.
         12    1    5    5    0    0 -0.13204792383E+02  0.16999567037E+02  0.79140233189E+01  0.22934332046E+02  0.00000000000E+00 0.  1.
        -12    1    5    5    0    0 -0.31939041599E+01 -0.20731386108E+02 -0.44822084001E+02  0.49487479305E+02  0.00000000000E+00 0.  1.
<mgrwt>
<rscale>  0 0.12499874E+03</rscale>
<asrwt>0</asrwt>
<pdfrwt beam="1">  1       21 0.59219160E-02 0.12499874E+03</pdfrwt>
<pdfrwt beam="2">  1       21 0.15612136E-01 0.12499874E+03</pdfrwt>
<totfact> 0.72045365E+06</totfact>
</mgrwt>
</event>
<event>
 9    1  0.4541185E-002  0.1249999E+03  0.7818608E-02  0.1235069E+00
         21   -1    0    0  503  502  0.00000000000E+00  0.00000000000E+00  0.20384420225E+03  0.20384420225E+03  0.00000000000E+00 0.  1.
         21   -1    0    0  502  503 -0.00000000000E+00 -0.00000000000E+00 -0.19162903602E+02  0.19162903602E+02  0.00000000000E+00 0.  1.
         25    2    1    2    0    0 -0.35527136788E-14 -0.17763568394E-14  0.18468129865E+03  0.22300710586E+03  0.12499994876E+03 0.  0.
    9000006    2    3    3    0    0 -0.94224993990E+01 -0.40703857370E+01  0.67059433134E+02  0.90566220243E+02  0.59999342846E+02 0.  0.
    9000007    2    3    3    0    0  0.94224993990E+01  0.40703857370E+01  0.11762186552E+03  0.13244088561E+03  0.60002778262E+02 0.  0.
          5    1    4    4  501    0 -0.22468662701E+02 -0.10059077473E+02  0.35826495871E+01  0.25317014462E+02  0.47000000000E+01 0.  1.
         -5    1    4    4    0  501  0.13046163302E+02  0.59886917365E+01  0.63476783547E+02  0.65249205781E+02  0.47000000000E+01 0.  1.
         12    1    5    5    0    0  0.24830850852E+02 -0.14336455339E+02  0.29622371506E+02  0.41226083968E+02  0.00000000000E+00 0.  1.
        -12    1    5    5    0    0 -0.15408351453E+02  0.18406841076E+02  0.87999494012E+02  0.91214801645E+02  0.00000000000E+00 0.  1.
<mgrwt>
<rscale>  0 0.12499995E+03</rscale>
<asrwt>0</asrwt>
<pdfrwt beam="1">  1       21 0.31360645E-01 0.12499995E+03</pdfrwt>
<pdfrwt beam="2">  1       21 0.29481391E-02 0.12499995E+03</pdfrwt>
<totfact> 0.62516566E+06</totfact>
</mgrwt>
</event>
<event>
 9    1  0.4541185E-002  0.1249592E+03  0.7818608E-02  0.1235133E+00
         21   -1    0    0  503  502  0.00000000000E+00  0.00000000000E+00  0.17744675335E+02  0.17744675335E+02  0.00000000000E+00 0. -1.
         21   -1    0    0  502  503 -0.00000000000E+00 -0.00000000000E+00 -0.21999292926E+03  0.21999292926E+03  0.00000000000E+00 0. -1.
         25    2    1    2    0    0  0.00000000000E+00  0.00000000000E+00 -0.20224825393E+03  0.23773760460E+03  0.12495924305E+03 0.  0.
    9000006    2    3    3    0    0  0.49310424397E+01 -0.62190751464E+01 -0.71601212966E+02  0.93753606893E+02  0.60000108601E+02 0.  0.
    9000007    2    3    3    0    0 -0.49310424397E+01  0.62190751464E+01 -0.13064704096E+03  0.14398399770E+03  0.59997918362E+02 0.  0.
          5    1    4    4  501    0 -0.82187371768E+01 -0.21771849296E+02 -0.54228281281E+01  0.24352784799E+02  0.47000000000E+01 0.  1.
         -5    1    4    4    0  501  0.13149779616E+02  0.15552774150E+02 -0.66178384837E+02  0.69400822095E+02  0.47000000000E+01 0.  1.
         12    1    5    5    0    0 -0.28060078680E+02 -0.11099607627E+02 -0.51009628314E+02  0.59266782313E+02  0.00000000000E+00 0.  1.
        -12    1    5    5    0    0  0.23129036241E+02  0.17318682774E+02 -0.79637412647E+02  0.84717215391E+02  0.00000000000E+00 0.  1.
<mgrwt>
<rscale>  0 0.12495924E+03</rscale>
<asrwt>0</asrwt>
<pdfrwt beam="1">  1       21 0.27299500E-02 0.12495924E+03</pdfrwt>
<pdfrwt beam="2">  1       21 0.33845066E-01 0.12495924E+03</pdfrwt>
<totfact> 0.61115100E+06</totfact>
</mgrwt>
</event>
<event>
 9    1  0.4541185E-002  0.1249977E+03  0.7818608E-02  0.1235073E+00
         21   -1    0    0  503  502  0.00000000000E+00  0.00000000000E+00  0.27975253782E+02  0.27975253782E+02  0.00000000000E+00 0.  1.
         21   -1    0    0  502  503 -0.00000000000E+00 -0.00000000000E+00 -0.13962713869E+03  0.13962713869E+03  0.00000000000E+00 0.  1.
         25    2    1    2    0    0 -0.17763568394E-14  0.26645352591E-14 -0.11165188491E+03  0.16760239248E+03  0.12499767422E+03 0.  0.
    9000006    2    3    3    0    0 -0.13187610926E+02 -0.78452785921E+01 -0.67096068175E+02  0.91309449397E+02  0.60000597551E+02 0.  0.
    9000007    2    3    3    0    0  0.13187610926E+02  0.78452785921E+01 -0.44555816737E+02  0.76292943080E+02  0.59999424002E+02 0.  0.
          5    1    4    4  501    0 -0.18409976242E+01 -0.29729170552E+02 -0.56552804968E+02  0.64089957120E+02  0.47000000000E+01 0.  1.
         -5    1    4    4    0  501 -0.11346613302E+02  0.21883891960E+02 -0.10543263207E+02  0.27219492277E+02  0.47000000000E+01 0.  1.
         12    1    5    5    0    0 -0.20761623682E+02  0.86024762680E+01 -0.33956195214E+02  0.40719415630E+02  0.00000000000E+00 0.  1.
        -12    1    5    5    0    0  0.33949234608E+02 -0.75719767592E+00 -0.10599621524E+02  0.35573527450E+02  0.00000000000E+00 0.  1.
<mgrwt>
<rscale>  0 0.12499767E+03</rscale>
<asrwt>0</asrwt>
<pdfrwt beam="1">  1       21 0.43038852E-02 0.12499767E+03</pdfrwt>
<pdfrwt beam="2">  1       21 0.21481098E-01 0.12499767E+03</pdfrwt>
<totfact> 0.68606344E+06</totfact>
</mgrwt>
</event>
<event>
 9    1  0.4541185E-002  0.1250032E+03  0.7818608E-02  0.1235064E+00
         21   -1    0    0  503  502  0.00000000000E+00  0.00000000000E+00  0.68673558398E+02  0.68673558398E+02  0.00000000000E+00 0.  1.
         21   -1    0    0  502  503 -0.00000000000E+00 -0.00000000000E+00 -0.56884331190E+02  0.56884331190E+02  0.00000000000E+00 0.  1.
         25    2    1    2    0    0  0.00000000000E+00  0.35527136788E-14  0.11789227208E+02  0.12555788959E+03  0.12500319100E+03 0.  0.
    9000006    2    3    3    0    0  0.54975805546E+01  0.16522432360E+02  0.77274756190E+01  0.62950950108E+02  0.59999117302E+02 0.  0.
    9000007    2    3    3    0    0 -0.54975805546E+01 -0.16522432360E+02  0.40617515889E+01  0.62606939480E+02  0.59999307346E+02 0.  0.
          5    1    4    4  501    0 -0.73617140427E+01 -0.20614839584E+02 -0.10323164306E+01  0.22412543852E+02  0.47000000000E+01 0.  1.
         -5    1    4    4    0  501  0.12859294597E+02  0.37137271944E+02  0.87597920496E+01  0.40538406256E+02  0.47000000000E+01 0.  1.
         12    1    5    5    0    0 -0.24634333517E+02 -0.11560405596E+02 -0.18274138767E+02  0.32778613654E+02  0.00000000000E+00 0. -1.
        -12    1    5    5    0    0  0.19136752963E+02 -0.49620267642E+01  0.22335890356E+02  0.29828325826E+02  0.00000000000E+00 0. -1.
<mgrwt>
<rscale>  0 0.12500319E+03</rscale>
<asrwt>0</asrwt>
<pdfrwt beam="1">  1       21 0.10565163E-01 0.12500319E+03</pdfrwt>
<pdfrwt beam="2">  1       21 0.87514355E-02 0.12500319E+03</pdfrwt>
<totfact> 0.73961295E+06</totfact>
</mgrwt>
</event>
<event>
 9    1  0.4541185E-002  0.1250010E+03  0.7818608E-02  0.1235068E+00
         21   -1    0    0  503  502  0.00000000000E+00  0.00000000000E+00  0.14083459701E+02  0.14083459701E+02  0.00000000000E+00 0. -1.
         21   -1    0    0  502  503 -0.00000000000E+00 -0.00000000000E+00 -0.27736895861E+03  0.27736895861E+03  0.00000000000E+00 0. -1.
         25    2    1    2    0    0  0.00000000000E+00 -0.35527136788E-14 -0.26328549891E+03  0.29145241832E+03  0.12500103281E+03 0.  0.
    9000006    2    3    3    0    0  0.74182349747E+01 -0.15824497703E+02 -0.12954373710E+03  0.14383004265E+03  0.60000470078E+02 0.  0.
    9000007    2    3    3    0    0 -0.74182349747E+01  0.15824497703E+02 -0.13374176181E+03  0.14762237566E+03  0.60000516715E+02 0.  0.
          5    1    4    4  501    0 -0.20718279320E+02 -0.38279362893E+01 -0.18104614056E+02  0.28173875210E+02  0.47000000000E+01 0.  1.
         -5    1    4    4    0  501  0.28136514295E+02 -0.11996561414E+02 -0.11143912305E+03  0.11565616744E+03  0.47000000000E+01 0.  1.
         12    1    5    5    0    0  0.11879186876E+02  0.28866040868E+02 -0.11008221880E+03  0.11442228058E+03  0.00000000000E+00 0.  1.
        -12    1    5    5    0    0 -0.19297421851E+02 -0.13041543164E+02 -0.23659543007E+02  0.33200095083E+02  0.00000000000E+00 0.  1.
<mgrwt>
<rscale>  0 0.12500103E+03</rscale>
<asrwt>0</asrwt>
<pdfrwt beam="1">  1       21 0.21666859E-02 0.12500103E+03</pdfrwt>
<pdfrwt beam="2">  1       21 0.42672151E-01 0.12500103E+03</pdfrwt>
<totfact> 0.56172616E+06</totfact>
</mgrwt>
</event>
<event>
 9    1  0.4541185E-002  0.1250006E+03  0.7818608E-02  0.1235068E+00
         21   -1    0    0  503  502  0.00000000000E+00  0.00000000000E+00  0.22409685531E+02  0.22409685531E+02  0.00000000000E+00 0.  1.
         21   -1    0    0  502  503 -0.00000000000E+00 -0.00000000000E+00 -0.17431249305E+03  0.17431249305E+03  0.00000000000E+00 0.  1.
         25    2    1    2    0    0 -0.35527136788E-14 -0.17763568394E-14 -0.15190280752E+03  0.19672217858E+03  0.12500061045E+03 0.  0.
    9000006    2    3    3    0    0  0.94455356316E+01  0.23160317590E+00 -0.99134543278E+02  0.11626196001E+03  0.59999282415E+02 0.  0.
    9000007    2    3    3    0    0 -0.94455356316E+01 -0.23160317590E+00 -0.52768264242E+02  0.80460218575E+02  0.60000710650E+02 0.  0.
          5    1    4    4  501    0 -0.35185035862E+01 -0.95401246024E+01 -0.98722455381E+02  0.99355961278E+02  0.47000000000E+01 0.  1.
         -5    1    4    4    0  501  0.12964039218E+02  0.97717277783E+01 -0.41208789735E+00  0.16905998730E+02  0.47000000000E+01 0.  1.
         12    1    5    5    0    0  0.17317810702E+02  0.18953334904E+02 -0.12841357453E+02  0.28706026070E+02  0.00000000000E+00 0. -1.
        -12    1    5    5    0    0 -0.26763346334E+02 -0.19184938080E+02 -0.39926906789E+02  0.51754192505E+02  0.00000000000E+00 0. -1.
<mgrwt>
<rscale>  0 0.12500061E+03</rscale>
<asrwt>0</asrwt>
<pdfrwt beam="1">  1       21 0.34476439E-02 0.12500061E+03</pdfrwt>
<pdfrwt beam="2">  1       21 0.26817307E-01 0.12500061E+03</pdfrwt>
<totfact> 0.65282017E+06</totfact>
</mgrwt>
</event>
<event>
 9    1  0.4541185E-002  0.1250028E+03  0.7818608E-02  0.1235065E+00
         21   -1    0    0  503  502  0.00000000000E+00  0.00000000000E+00  0.89382850452E+02  0.89382850452E+02  0.00000000000E+00 0. -1.
         21   -1    0    0  502  503 -0.00000000000E+00 -0.00000000000E+00 -0.43704408853E+02  0.43704408853E+02  0.00000000000E+00 0. -1.
         25    2    1    2    0    0 -0.17763568394E-14  0.17763568394E-14  0.45678441600E+02  0.13308725931E+03  0.12500279422E+03 0.  0.
    9000006    2    3    3    0    0 -0.14145516831E+02  0.33583900684E+01  0.33213433054E+02  0.70104222052E+02  0.60000794861E+02 0.  0.
    9000007    2    3    3    0    0  0.14145516831E+02 -0.33583900684E+01  0.12465008546E+02  0.62983037253E+02  0.60000934270E+02 0.  0.
          5    1    4    4  501    0  0.44259562149E+01  0.17896190602E+02  0.40691787477E+02  0.44919642636E+02  0.47000000000E+01 0. -1.
         -5    1    4    4    0  501 -0.18571473046E+02 -0.14537800534E+02 -0.74783544230E+01  0.25184579416E+02  0.47000000000E+01 0. -1.
         12    1    5    5    0    0  0.29841682393E+02  0.67289605882E+01 -0.11438699335E+02  0.32659589114E+02  0.00000000000E+00 0. -1.
        -12    1    5    5    0    0 -0.15696165562E+02 -0.10087350657E+02  0.23903707880E+02  0.30323448139E+02  0.00000000000E+00 0. -1.
<mgrwt>
<rscale>  0 0.12500279E+03</rscale>
<asrwt>0</asrwt>
<pdfrwt beam="1">  1       21 0.13751208E-01 0.12500279E+03</pdfrwt>
<pdfrwt beam="2">  1       21 0.67237552E-02 0.12500279E+03</pdfrwt>
<totfact> 0.72945549E+06</totfact>
</mgrwt>
</event>
<event>
 9    1  0.4541185E-002  0.1249979E+03  0.7818608E-02  0.1235072E+00
         21   -1    0    0  503  502  0.00000000000E+00  0.00000000000E+00  0.15340615989E+03  0.15340615989E+03  0.00000000000E+00 0. -1.
         21   -1    0    0  502  503 -0.00000000000E+00 -0.00000000000E+00 -0.25462611720E+02  0.25462611720E+02  0.00000000000E+00 0. -1.
         25    2    1    2    0    0  0.35527136788E-14  0.44408920985E-15  0.12794354817E+03  0.17886877161E+03  0.12499794374E+03 0.  0.
    9000006    2    3    3    0    0  0.15437408947E+02  0.24626684220E+01  0.52725365035E+02  0.81389732234E+02  0.59999550534E+02 0.  0.
    9000007    2    3    3    0    0 -0.15437408947E+02 -0.24626684220E+01  0.75218183137E+02  0.97479039378E+02  0.60000080941E+02 0.  0.
          5    1    4    4  501    0 -0.14311781955E+02  0.11591282649E+02  0.45196375721E+02  0.49030473326E+02  0.47000000000E+01 0.  1.
         -5    1    4    4    0  501  0.29749190902E+02 -0.91286142272E+01  0.75289893140E+01  0.32359258908E+02  0.47000000000E+01 0.  1.
         12    1    5    5    0    0  0.21545473741E+02  0.30793531788E+01  0.42680337904E+02  0.47909300750E+02  0.00000000000E+00 0. -1.
        -12    1    5    5    0    0 -0.36982882688E+02 -0.55420216008E+01  0.32537845233E+02  0.49569738629E+02  0.00000000000E+00 0. -1.
<mgrwt>
<rscale>  0 0.12499794E+03</rscale>
<asrwt>0</asrwt>
<pdfrwt beam="1">  1       21 0.23600947E-01 0.12499794E+03</pdfrwt>
<pdfrwt beam="2">  1       21 0.39173250E-02 0.12499794E+03</pdfrwt>
<totfact> 0.67285054E+06</totfact>
</mgrwt>
</event>
<event>
 9    1  0.4541185E-002  0.1249990E+03  0.7818608E-02  0.1235071E+00
         21   -1    0    0  503  502  0.00000000000E+00  0.00000000000E+00  0.11553799397E+03  0.11553799397E+03  0.00000000000E+00 0. -1.
         21   -1    0    0  502  503 -0.00000000000E+00 -0.00000000000E+00 -0.33808695648E+02  0.33808695648E+02  0.00000000000E+00 0. -1.
         25    2    1    2    0    0 -0.35527136788E-14  0.00000000000E+00  0.81729298326E+02  0.14934668962E+03  0.12499902198E+03 0.  0.
    9000006    2    3    3    0    0  0.17480580329E+02 -0.19465558551E+00  0.41810613128E+02  0.75191019875E+02  0.59999612667E+02 0.  0.
    9000007    2    3    3    0    0 -0.17480580329E+02  0.19465558551E+00  0.39918685198E+02  0.74155669747E+02  0.59999611234E+02 0.  0.
          5    1    4    4  501    0  0.70046964569E+01  0.91482777058E+00 -0.14993315237E+02  0.17227657534E+02  0.47000000000E+01 0.  1.
         -5    1    4    4    0  501  0.10475883873E+02 -0.11094833561E+01  0.56803928365E+02  0.57963362341E+02  0.47000000000E+01 0.  1.
         12    1    5    5    0    0 -0.22286008163E+02 -0.12400883547E+01 -0.96620191886E+01  0.24321977587E+02  0.00000000000E+00 0.  1.
        -12    1    5    5    0    0  0.48054278331E+01  0.14347439402E+01  0.49580704386E+02  0.49833692160E+02  0.00000000000E+00 0.  1.
<mgrwt>
<rscale>  0 0.12499902E+03</rscale>
<asrwt>0</asrwt>
<pdfrwt beam="1">  1       21 0.17775076E-01 0.12499902E+03</pdfrwt>
<pdfrwt beam="2">  1       21 0.52013378E-02 0.12499902E+03</pdfrwt>
<totfact> 0.70843129E+06</totfact>
</mgrwt>
</event>
<event>
 9    1  0.4541185E-002  0.1249997E+03  0.7818608E-02  0.1235070E+00
         21   -1    0    0  503  502  0.00000000000E+00  0.00000000000E+00  0.52606813242E+03  0.52606813242E+03  0.00000000000E+00 0. -1.
         21   -1    0    0  502  503 -0.00000000000E+00 -0.00000000000E+00 -0.74253315088E+01  0.74253315088E+01  0.00000000000E+00 0. -1.
         25    2    1    2    0    0  0.35527136788E-14  0.00000000000E+00  0.51864280091E+03  0.53349346392E+03  0.12499968447E+03 0.  0.
    9000006    2    3    3    0    0  0.41205088530E+01 -0.13388231156E+02  0.30425699715E+03  0.31043276578E+03  0.59999653560E+02 0.  0.
    9000007    2    3    3    0    0 -0.41205088530E+01  0.13388231156E+02  0.21438580376E+03  0.22306069815E+03  0.59988156150E+02 0.  0.
          5    1    4    4  501    0  0.22794900796E+02  0.68057919956E+00  0.25102609342E+03  0.25210366968E+03  0.47000000000E+01 0.  1.
         -5    1    4    4    0  501 -0.18674391943E+02 -0.14068810356E+02  0.53230903727E+02  0.58329096092E+02  0.47000000000E+01 0.  1.
         12    1    5    5    0    0 -0.27952592463E+02  0.22549851386E+02  0.13301117915E+03  0.13777451507E+03  0.00000000000E+00 0.  1.
        -12    1    5    5    0    0  0.23832083610E+02 -0.91616202292E+01  0.81374624606E+02  0.85286183079E+02  0.00000000000E+00 0.  1.
<mgrwt>
<rscale>  0 0.12499968E+03</rscale>
<asrwt>0</asrwt>
<pdfrwt beam="1">  1       21 0.80933529E-01 0.12499968E+03</pdfrwt>
<pdfrwt beam="2">  1       21 0.11423591E-02 0.12499968E+03</pdfrwt>
<totfact> 0.40284337E+06</totfact>
</mgrwt>
</event>
<event>
 9    1  0.4541185E-002  0.1250003E+03  0.7818608E-02  0.1235069E+00
         21   -1    0    0  503  502  0.00000000000E+00  0.00000000000E+00  0.13650803868E+03  0.13650803868E+03  0.00000000000E+00 0. -1.
         21   -1    0    0  502  503 -0.00000000000E+00 -0.00000000000E+00 -0.28615659327E+02  0.28615659327E+02  0.00000000000E+00 0. -1.
         25    2    1    2    0    0  0.17763568394E-14  0.88817841970E-15  0.10789237936E+03  0.16512369801E+03  0.12500028048E+03 0.  0.
    9000006    2    3    3    0    0 -0.10464406862E+02  0.58486364178E+01  0.37078734225E+02  0.71543694137E+02  0.59999644000E+02 0.  0.
    9000007    2    3    3    0    0  0.10464406862E+02 -0.58486364178E+01  0.70813645133E+02  0.93580003873E+02  0.59991119585E+02 0.  0.
          5    1    4    4  501    0 -0.27081762737E+02  0.10026170514E+02  0.43693665772E+02  0.52584906549E+02  0.47000000000E+01 0. -1.
         -5    1    4    4    0  501  0.16617355876E+02 -0.41775340965E+01 -0.66149315477E+01  0.18958787588E+02  0.47000000000E+01 0. -1.
         12    1    5    5    0    0  0.24441226911E+02 -0.26860359701E+01  0.35937638409E+01  0.24849617717E+02  0.00000000000E+00 0. -1.
        -12    1    5    5    0    0 -0.13976820049E+02 -0.31626004477E+01  0.67219881292E+02  0.68730386156E+02  0.00000000000E+00 0. -1.
<mgrwt>
<rscale>  0 0.12500028E+03</rscale>
<asrwt>0</asrwt>
<pdfrwt beam="1">  1       21 0.21001236E-01 0.12500028E+03</pdfrwt>
<pdfrwt beam="2">  1       21 0.44024092E-02 0.12500028E+03</pdfrwt>
<totfact> 0.68898301E+06</totfact>
</mgrwt>
</event>
<event>
 9    1  0.4541185E-002  0.1249988E+03  0.7818608E-02  0.1235071E+00
         21   -1    0    0  503  502  0.00000000000E+00  0.00000000000E+00  0.16959947332E+02  0.16959947332E+02  0.00000000000E+00 0.  1.
         21   -1    0    0  502  503 -0.00000000000E+00 -0.00000000000E+00 -0.23031762856E+03  0.23031762856E+03  0.00000000000E+00 0.  1.
         25    2    1    2    0    0 -0.53290705182E-14 -0.35527136788E-14 -0.21335768123E+03  0.24727757590E+03  0.12499879759E+03 0.  0.
    9000006    2    3    3    0    0  0.12509900612E+02  0.11273927127E+02 -0.11608024941E+03  0.13175071574E+03  0.60000231245E+02 0.  0.
    9000007    2    3    3    0    0 -0.12509900612E+02 -0.11273927127E+02 -0.97277431822E+02  0.11552686015E+03  0.59999646905E+02 0.  0.
          5    1    4    4  501    0  0.29910864970E+02  0.75560841537E+00 -0.10242966092E+03  0.10681365186E+03  0.47000000000E+01 0.  1.
         -5    1    4    4    0  501 -0.17400964358E+02  0.10518318711E+02 -0.13650588494E+02  0.24937063888E+02  0.47000000000E+01 0.  1.
         12    1    5    5    0    0 -0.19952244891E+02 -0.17050304336E+02 -0.10176274734E+03  0.10509263391E+03  0.00000000000E+00 0.  1.
        -12    1    5    5    0    0  0.74423442787E+01  0.57763772088E+01  0.44853155232E+01  0.10434226247E+02  0.00000000000E+00 0.  1.
<mgrwt>
<rscale>  0 0.12499880E+03</rscale>
<asrwt>0</asrwt>
<pdfrwt beam="1">  1       21 0.26092229E-02 0.12499880E+03</pdfrwt>
<pdfrwt beam="2">  1       21 0.35433477E-01 0.12499880E+03</pdfrwt>
<totfact> 0.60137277E+06</totfact>
</mgrwt>
</event>
<event>
 9    1  0.4541185E-002  0.1250047E+03  0.7818608E-02  0.1235062E+00
         21   -1    0    0  503  502  0.00000000000E+00  0.00000000000E+00  0.10389482993E+02  0.10389482993E+02  0.00000000000E+00 0. -1.
         21   -1    0    0  502  503 -0.00000000000E+00 -0.00000000000E+00 -0.37600964982E+03  0.37600964982E+03  0.00000000000E+00 0. -1.
         25    2    1    2    0    0 -0.35527136788E-14  0.00000000000E+00 -0.36562016682E+03  0.38639913281E+03  0.12500473370E+03 0.  0.
    9000006    2    3    3    0    0 -0.12056633022E+02 -0.63428474058E+01 -0.14880210551E+03  0.16102026527E+03  0.59998875899E+02 0.  0.
    9000007    2    3    3    0    0  0.12056633022E+02  0.63428474058E+01 -0.21681806131E+03  0.22537886754E+03  0.59999734255E+02 0.  0.
          5    1    4    4  501    0 -0.15023739858E+02  0.23170883898E+02 -0.45413472997E+02  0.53357999865E+02  0.47000000000E+01 0.  1.
         -5    1    4    4    0  501  0.29671068358E+01 -0.29513731304E+02 -0.10338863251E+03  0.10766226540E+03  0.47000000000E+01 0.  1.
         12    1    5    5    0    0 -0.39965329045E+01 -0.10411562587E+02 -0.18822578005E+03  0.18855587285E+03  0.00000000000E+00 0. -1.
        -12    1    5    5    0    0  0.16053165926E+02  0.16754409992E+02 -0.28592281266E+02  0.36822994697E+02  0.00000000000E+00 0. -1.
<mgrwt>
<rscale>  0 0.12500473E+03</rscale>
<asrwt>0</asrwt>
<pdfrwt beam="1">  1       21 0.15983823E-02 0.12500473E+03</pdfrwt>
<pdfrwt beam="2">  1       21 0.57847627E-01 0.12500473E+03</pdfrwt>
<totfact> 0.48950970E+06</totfact>
</mgrwt>
</event>
<event>
 9    1  0.4541185E-002  0.1250030E+03  0.7818608E-02  0.1235065E+00
         21   -1    0    0  503  502  0.00000000000E+00  0.00000000000E+00  0.19975999668E+03  0.19975999668E+03  0.00000000000E+00 0. -1.
         21   -1    0    0  502  503 -0.00000000000E+00 -0.00000000000E+00 -0.19555660521E+02  0.19555660521E+02  0.00000000000E+00 0. -1.
         25    2    1    2    0    0  0.00000000000E+00 -0.88817841970E-15  0.18020433616E+03  0.21931565720E+03  0.12500301886E+03 0.  0.
    9000006    2    3    3    0    0  0.72696486435E+01  0.43002181207E+01  0.11700490330E+03  0.13176321805E+03  0.60000488055E+02 0.  0.
    9000007    2    3    3    0    0 -0.72696486435E+01 -0.43002181207E+01  0.63199432863E+02  0.87552439157E+02  0.59999346837E+02 0.  0.
          5    1    4    4  501    0  0.75707794106E+01  0.11507538910E+02  0.11315405634E+00  0.14554825883E+02  0.47000000000E+01 0. -1.
         -5    1    4    4    0  501 -0.30113076714E+00 -0.72073207891E+01  0.11689174924E+03  0.11720839216E+03  0.47000000000E+01 0. -1.
         12    1    5    5    0    0  0.14575279197E+02  0.16166613626E+02  0.50582994482E+02  0.55067572042E+02  0.00000000000E+00 0.  1.
        -12    1    5    5    0    0 -0.21844927840E+02 -0.20466831747E+02  0.12616438381E+02  0.32484867116E+02  0.00000000000E+00 0.  1.
<mgrwt>
<rscale>  0 0.12500302E+03</rscale>
<asrwt>0</asrwt>
<pdfrwt beam="1">  1       21 0.30732306E-01 0.12500302E+03</pdfrwt>
<pdfrwt beam="2">  1       21 0.30085633E-02 0.12500302E+03</pdfrwt>
<totfact> 0.62887755E+06</totfact>
</mgrwt>
</event>
<event>
 9    1  0.4541185E-002  0.1250017E+03  0.7818608E-02  0.1235067E+00
         21   -1    0    0  503  502  0.00000000000E+00  0.00000000000E+00  0.88247126960E+01  0.88247126960E+01  0.00000000000E+00 0. -1.
         21   -1    0    0  502  503 -0.00000000000E+00 -0.00000000000E+00 -0.44266105053E+03  0.44266105053E+03  0.00000000000E+00 0. -1.
         25    2    1    2    0    0  0.00000000000E+00 -0.17763568394E-14 -0.43383633784E+03  0.45148576323E+03  0.12500170547E+03 0.  0.
    9000006    2    3    3    0    0  0.25783194135E+01  0.84041250250E+01 -0.27157774298E+03  0.27826585920E+03  0.60001173869E+02 0.  0.
    9000007    2    3    3    0    0 -0.25783194135E+01 -0.84041250250E+01 -0.16225859486E+03  0.17321990403E+03  0.60000054154E+02 0.  0.
          5    1    4    4  501    0 -0.13226736600E+02 -0.20938122209E+02 -0.15051936222E+03  0.15261559529E+03  0.47000000000E+01 0.  1.
         -5    1    4    4    0  501  0.15805056013E+02  0.29342247234E+02 -0.12105838076E+03  0.12565026391E+03  0.47000000000E+01 0.  1.
         12    1    5    5    0    0 -0.23360806821E+02 -0.13080011066E+02 -0.34359739889E+02  0.43559220724E+02  0.00000000000E+00 0. -1.
        -12    1    5    5    0    0  0.20782487407E+02  0.46758860414E+01 -0.12789885497E+03  0.12966068331E+03  0.00000000000E+00 0. -1.
<mgrwt>
<rscale>  0 0.12500171E+03</rscale>
<asrwt>0</asrwt>
<pdfrwt beam="1">  1       21 0.13576481E-02 0.12500171E+03</pdfrwt>
<pdfrwt beam="2">  1       21 0.68101702E-01 0.12500171E+03</pdfrwt>
<totfact> 0.44801591E+06</totfact>
</mgrwt>
</event>
<event>
 9    1  0.4541185E-002  0.1250102E+03  0.7818608E-02  0.1235053E+00
         21   -1    0    0  503  502  0.00000000000E+00  0.00000000000E+00  0.85741359504E+01  0.85741359504E+01  0.00000000000E+00 0. -1.
         21   -1    0    0  502  503 -0.00000000000E+00 -0.00000000000E+00 -0.45565938580E+03  0.45565938580E+03  0.00000000000E+00 0. -1.
         25    2    1    2    0    0  0.00000000000E+00  0.44408920985E-15 -0.44708524985E+03  0.46423352175E+03  0.12501016792E+03 0.  0.
    9000006    2    3    3    0    0  0.10954796976E+02 -0.54740786568E+00 -0.17284045791E+03  0.18328716049E+03  0.60000433980E+02 0.  0.
    9000007    2    3    3    0    0 -0.10954796976E+02  0.54740786568E+00 -0.27424479194E+03  0.28094636126E+03  0.60002872991E+02 0.  0.
          5    1    4    4  501    0  0.12753926728E+02 -0.20088563481E+01 -0.17641140870E+03  0.17694567887E+03  0.47000000000E+01 0. -1.
         -5    1    4    4    0  501 -0.17991297522E+01  0.14614484824E+01  0.35709507939E+01  0.63414816174E+01  0.47000000000E+01 0. -1.
         12    1    5    5    0    0 -0.33886777534E+01  0.61252923230E+01 -0.47609724311E+00  0.70163388988E+01  0.00000000000E+00 0.  1.
        -12    1    5    5    0    0 -0.75661192224E+01 -0.55778844573E+01 -0.27376869469E+03  0.27393002236E+03  0.00000000000E+00 0.  1.
<mgrwt>
<rscale>  0 0.12501017E+03</rscale>
<asrwt>0</asrwt>
<pdfrwt beam="1">  1       21 0.13190979E-02 0.12501017E+03</pdfrwt>
<pdfrwt beam="2">  1       21 0.70101440E-01 0.12501017E+03</pdfrwt>
<totfact> 0.44041475E+06</totfact>
</mgrwt>
</event>
<event>
 9    1  0.4541185E-002  0.1249972E+03  0.7818608E-02  0.1235074E+00
         21   -1    0    0  503  502  0.00000000000E+00  0.00000000000E+00  0.19124228640E+04  0.19124228640E+04  0.00000000000E+00 0. -1.
         21   -1    0    0  502  503 -0.00000000000E+00 -0.00000000000E+00 -0.20424759979E+01  0.20424759979E+01  0.00000000000E+00 0. -1.
         25    2    1    2    0    0 -0.26645352591E-14  0.00000000000E+00  0.19103803880E+04  0.19144653400E+04  0.12499724473E+03 0.  0.
    9000006    2    3    3    0    0  0.28400637296E+01  0.92937365462E+01  0.73234541173E+03  0.73486342709E+03  0.60000124139E+02 0.  0.
    9000007    2    3    3    0    0 -0.28400637296E+01 -0.92937365462E+01  0.11780349763E+04  0.11796019129E+04  0.59998567535E+02 0.  0.
          5    1    4    4  501    0  0.27663446971E+02 -0.75665129945E+01  0.28156126325E+03  0.28305715568E+03  0.47000000000E+01 0.  1.
         -5    1    4    4    0  501 -0.24823383241E+02  0.16860249541E+02  0.45078414848E+03  0.45180627142E+03  0.47000000000E+01 0.  1.
         12    1    5    5    0    0  0.79381382465E+01  0.44491190758E+01  0.10790208111E+04  0.10790591826E+04  0.00000000000E+00 0.  1.
        -12    1    5    5    0    0 -0.10778201976E+02 -0.13742855622E+02  0.99014165141E+02  0.10054273030E+03  0.00000000000E+00 0.  1.
<mgrwt>
<rscale>  0 0.12499724E+03</rscale>
<asrwt>0</asrwt>
<pdfrwt beam="1">  1       21 0.29421747E+00 0.12499724E+03</pdfrwt>
<pdfrwt beam="2">  1       21 0.31422860E-03 0.12499724E+03</pdfrwt>
<totfact> 0.88132807E+05</totfact>
</mgrwt>
</event>
<event>
 9    1  0.4541185E-002  0.1250003E+03  0.7818608E-02  0.1235069E+00
         21   -1    0    0  503  502  0.00000000000E+00  0.00000000000E+00  0.27220538803E+04  0.27220538803E+04  0.00000000000E+00 0. -1.
         21   -1    0    0  502  503 -0.00000000000E+00 -0.00000000000E+00 -0.14350436108E+01  0.14350436108E+01  0.00000000000E+00 0. -1.
         25    2    1    2    0    0 -0.35527136788E-14  0.17763568394E-14  0.27206188366E+04  0.27234889239E+04  0.12500025646E+03 0.  0.
    9000006    2    3    3    0    0 -0.15018892224E+02  0.71104875588E+01  0.14800528090E+04  0.14813616967E+04  0.60000275413E+02 0.  0.
    9000007    2    3    3    0    0  0.15018892224E+02 -0.71104875588E+01  0.12405660277E+04  0.12421272271E+04  0.59998776730E+02 0.  0.
          5    1    4    4  501    0 -0.18502747455E+02 -0.11933423468E+02  0.21951251541E+03  0.22066398139E+03  0.47000000000E+01 0.  1.
         -5    1    4    4    0  501  0.34838552312E+01  0.19043911026E+02  0.12605402935E+04  0.12606977153E+04  0.47000000000E+01 0.  1.
         12    1    5    5    0    0  0.24814349125E+01 -0.46144260995E+01  0.11886134894E+04  0.11886250366E+04  0.00000000000E+00 0. -1.
        -12    1    5    5    0    0  0.12537457312E+02 -0.24960614593E+01  0.51952538238E+02  0.53502190498E+02  0.00000000000E+00 0. -1.
<mgrwt>
<rscale>  0 0.12500026E+03</rscale>
<asrwt>0</asrwt>
<pdfrwt beam="1">  1       21 0.41877339E+00 0.12500026E+03</pdfrwt>
<pdfrwt beam="2">  1       21 0.22077812E-03 0.12500026E+03</pdfrwt>
<totfact> 0.28215589E+05</totfact>
</mgrwt>
</event>
<event>
 9    1  0.4541185E-002  0.1249943E+03  0.7818608E-02  0.1235078E+00
         21   -1    0    0  503  502  0.00000000000E+00  0.00000000000E+00  0.40623956970E+03  0.40623956970E+03  0.00000000000E+00 0. -1.
         21   -1    0    0  502  503 -0.00000000000E+00 -0.00000000000E+00 -0.96147606129E+01  0.96147606129E+01  0.00000000000E+00 0. -1.
         25    2    1    2    0    0  0.00000000000E+00  0.00000000000E+00  0.39662480909E+03  0.41585433031E+03  0.12499433930E+03 0.  0.
    9000006    2    3    3    0    0  0.10359976477E+02 -0.79962695885E+01  0.15970827054E+03  0.17110808518E+03  0.59999797437E+02 0.  0.
    9000007    2    3    3    0    0 -0.10359976477E+02  0.79962695885E+01  0.23691653854E+03  0.24474624514E+03  0.60000073612E+02 0.  0.
          5    1    4    4  501    0  0.16588010853E+02 -0.18357970512E+02  0.15541919989E+03  0.15744648259E+03  0.47000000000E+01 0. -1.
         -5    1    4    4    0  501 -0.62280343755E+01  0.10361700923E+02  0.42890706565E+01  0.13661602589E+02  0.47000000000E+01 0. -1.
         12    1    5    5    0    0 -0.27762018966E+02  0.24649079093E+02  0.13391139306E+03  0.13896246971E+03  0.00000000000E+00 0.  1.
        -12    1    5    5    0    0  0.17402042489E+02 -0.16652809504E+02  0.10300514548E+03  0.10578377542E+03  0.00000000000E+00 0.  1.
<mgrwt>
<rscale>  0 0.12499434E+03</rscale>
<asrwt>0</asrwt>
<pdfrwt beam="1">  1       21 0.62498382E-01 0.12499434E+03</pdfrwt>
<pdfrwt beam="2">  1       21 0.14791943E-02 0.12499434E+03</pdfrwt>
<totfact> 0.47013880E+06</totfact>
</mgrwt>
</event>
<event>
 9    1  0.4541185E-002  0.1249934E+03  0.7818608E-02  0.1235080E+00
         21   -1    0    0  503  502  0.00000000000E+00  0.00000000000E+00  0.12751181880E+02  0.12751181880E+02  0.00000000000E+00 0.  1.
         21   -1    0    0  502  503 -0.00000000000E+00 -0.00000000000E+00 -0.30631179341E+03  0.30631179341E+03  0.00000000000E+00 0.  1.
         25    2    1    2    0    0  0.35527136788E-14  0.00000000000E+00 -0.29356061153E+03  0.31906297529E+03  0.12499339806E+03 0.  0.
    9000006    2    3    3    0    0  0.11715510433E+02  0.12540800455E+02 -0.15549790137E+03  0.16755354243E+03  0.60000561573E+02 0.  0.
    9000007    2    3    3    0    0 -0.11715510433E+02 -0.12540800455E+02 -0.13806271016E+03  0.15150943286E+03  0.59993928433E+02 0.  0.
          5    1    4    4  501    0  0.29061005659E+02 -0.36293262646E+01 -0.12585285764E+03  0.12930098930E+03  0.47000000000E+01 0. -1.
         -5    1    4    4    0  501 -0.17345495226E+02  0.16170126720E+02 -0.29645043736E+02  0.38252553129E+02  0.47000000000E+01 0. -1.
         12    1    5    5    0    0  0.10505955140E+02 -0.31450554649E+02 -0.70031303868E+02  0.77484811432E+02  0.00000000000E+00 0. -1.
        -12    1    5    5    0    0 -0.22221465573E+02  0.18909754194E+02 -0.68031406290E+02  0.74024621429E+02  0.00000000000E+00 0. -1.
<mgrwt>
<rscale>  0 0.12499340E+03</rscale>
<asrwt>0</asrwt>
<pdfrwt beam="1">  1       21 0.19617204E-02 0.12499340E+03</pdfrwt>
<pdfrwt beam="2">  1       21 0.47124889E-01 0.12499340E+03</pdfrwt>
<totfact> 0.53916612E+06</totfact>
</mgrwt>
</event>
<event>
 9    1  0.4541185E-002  0.1249957E+03  0.7818608E-02  0.1235076E+00
         21   -1    0    0  503  502  0.00000000000E+00  0.00000000000E+00  0.47505025896E+03  0.47505025896E+03  0.00000000000E+00 0. -1.
         21   -1    0    0  502  503 -0.00000000000E+00 -0.00000000000E+00 -0.82222499249E+01  0.82222499249E+01  0.00000000000E+00 0. -1.
         25    2    1    2    0    0 -0.35527136788E-14  0.17763568394E-14  0.46682800903E+03  0.48327250888E+03  0.12499571122E+03 0.  0.
    9000006    2    3    3    0    0  0.12031914702E+02 -0.90920796076E+01  0.19915733574E+03  0.20854523236E+03  0.60000305643E+02 0.  0.
    9000007    2    3    3    0    0 -0.12031914702E+02  0.90920796076E+01  0.26767067329E+03  0.27472727652E+03  0.60000452020E+02 0.  0.
          5    1    4    4  501    0  0.25727124029E+02  0.95138678504E+01  0.47387147422E+02  0.54954802639E+02  0.47000000000E+01 0. -1.
         -5    1    4    4    0  501 -0.13695209327E+02 -0.18605947458E+02  0.15177018832E+03  0.15359042972E+03  0.47000000000E+01 0. -1.
         12    1    5    5    0    0 -0.24166335905E+02 -0.16688224792E+02  0.86991616841E+02  0.91815303944E+02  0.00000000000E+00 0. -1.
        -12    1    5    5    0    0  0.12134421203E+02  0.25780304400E+02  0.18067905645E+03  0.18291197258E+03  0.00000000000E+00 0. -1.
<mgrwt>
<rscale>  0 0.12499571E+03</rscale>
<asrwt>0</asrwt>
<pdfrwt beam="1">  1       21 0.73084634E-01 0.12499571E+03</pdfrwt>
<pdfrwt beam="2">  1       21 0.12649619E-02 0.12499571E+03</pdfrwt>
<totfact> 0.42970613E+06</totfact>
</mgrwt>
</event>
<event>
 9    1  0.4541185E-002  0.1250009E+03  0.7818608E-02  0.1235068E+00
         21   -1    0    0  503  502  0.00000000000E+00  0.00000000000E+00  0.55357767359E+03  0.55357767359E+03  0.00000000000E+00 0.  1.
         21   -1    0    0  502  503 -0.00000000000E+00 -0.00000000000E+00 -0.70564734748E+01  0.70564734748E+01  0.00000000000E+00 0.  1.
         25    2    1    2    0    0  0.35527136788E-14  0.17763568394E-14  0.54652120011E+03  0.56063414706E+03  0.12500089872E+03 0.  0.
    9000006    2    3    3    0    0 -0.86132369946E+01 -0.12703797159E+02  0.23569505611E+03  0.24369823005E+03  0.60009112140E+02 0.  0.
    9000007    2    3    3    0    0  0.86132369946E+01  0.12703797159E+02  0.31082614400E+03  0.31693591701E+03  0.59999244867E+02 0.  0.
          5    1    4    4  501    0  0.97715079574E+01 -0.31708112309E+02  0.15732208877E+03  0.16085153518E+03  0.47000000000E+01 0.  1.
         -5    1    4    4    0  501 -0.18384744952E+02  0.19004315150E+02  0.78372967340E+02  0.82846694871E+02  0.47000000000E+01 0.  1.
         12    1    5    5    0    0  0.20632628258E+02 -0.57195196576E+00  0.35774629186E+02  0.41302016552E+02  0.00000000000E+00 0. -1.
        -12    1    5    5    0    0 -0.12019391264E+02  0.13275749125E+02  0.27505151481E+03  0.27563390046E+03  0.00000000000E+00 0. -1.
<mgrwt>
<rscale>  0 0.12500090E+03</rscale>
<asrwt>0</asrwt>
<pdfrwt beam="1">  1       21 0.85165762E-01 0.12500090E+03</pdfrwt>
<pdfrwt beam="2">  1       21 0.10856117E-02 0.12500090E+03</pdfrwt>
<totfact> 0.38934793E+06</totfact>
</mgrwt>
</event>
<event>
 9    1  0.4541185E-002  0.1250002E+03  0.7818608E-02  0.1235069E+00
         21   -1    0    0  503  502  0.00000000000E+00  0.00000000000E+00  0.32434625839E+01  0.32434625839E+01  0.00000000000E+00 0. -1.
         21   -1    0    0  502  503 -0.00000000000E+00 -0.00000000000E+00 -0.12043494262E+04  0.12043494262E+04  0.00000000000E+00 0. -1.
         25    2    1    2    0    0  0.00000000000E+00  0.00000000000E+00 -0.12011059636E+04  0.12075928888E+04  0.12500019683E+03 0.  0.
    9000006    2    3    3    0    0 -0.40995320511E+01  0.12469612415E+02 -0.71236441530E+03  0.71500729881E+03  0.60000664810E+02 0.  0.
    9000007    2    3    3    0    0  0.40995320511E+01 -0.12469612415E+02 -0.48874154832E+03  0.49258558997E+03  0.59999708306E+02 0.  0.
          5    1    4    4  501    0 -0.27749284565E+02  0.17211425256E+02 -0.52541710733E+03  0.52645178566E+03  0.47000000000E+01 0.  1.
         -5    1    4    4    0  501  0.23649752514E+02 -0.47418128414E+01 -0.18694730797E+03  0.18855551315E+03  0.47000000000E+01 0.  1.
         12    1    5    5    0    0  0.24129260805E+02 -0.27342577382E+02 -0.29294587500E+03  0.29520691633E+03  0.00000000000E+00 0. -1.
        -12    1    5    5    0    0 -0.20029728754E+02  0.14872964967E+02 -0.19579567331E+03  0.19737867364E+03  0.00000000000E+00 0. -1.
<mgrwt>
<rscale>  0 0.12500020E+03</rscale>
<asrwt>0</asrwt>
<pdfrwt beam="1">  1       21 0.49899431E-03 0.12500020E+03</pdfrwt>
<pdfrwt beam="2">  1       21 0.18528450E+00 0.12500020E+03</pdfrwt>
<totfact> 0.18992618E+06</totfact>
</mgrwt>
</event>
<event>
 9    1  0.4541185E-002  0.1249976E+03  0.7818608E-02  0.1235073E+00
         21   -1    0    0  503  502  0.00000000000E+00  0.00000000000E+00  0.28436722648E+03  0.28436722648E+03  0.00000000000E+00 0.  1.
         21   -1    0    0  502  503 -0.00000000000E+00 -0.00000000000E+00 -0.13736107698E+02  0.13736107698E+02  0.00000000000E+00 0.  1.
         25    2    1    2    0    0  0.17763568394E-14  0.88817841970E-15  0.27063111878E+03  0.29810333417E+03  0.12499758156E+03 0.  0.
    9000006    2    3    3    0    0  0.35378579728E+01 -0.20871435701E+01  0.17587792988E+03  0.18587623327E+03  0.60000460573E+02 0.  0.
    9000007    2    3    3    0    0 -0.35378579728E+01  0.20871435701E+01  0.94753188900E+02  0.11222710091E+03  0.59999023022E+02 0.  0.
          5    1    4    4  501    0  0.20213962242E+02 -0.91057159767E+01  0.24601109161E+02  0.33448810216E+02  0.47000000000E+01 0. -1.
         -5    1    4    4    0  501 -0.16676104269E+02  0.70185724066E+01  0.15127682072E+03  0.15242742305E+03  0.47000000000E+01 0. -1.
         12    1    5    5    0    0 -0.98668402856E+01  0.11196740140E+01  0.10204290538E+03  0.10252493719E+03  0.00000000000E+00 0.  1.
        -12    1    5    5    0    0  0.63289823127E+01  0.96746955617E+00 -0.72897164791E+01  0.97021637176E+01  0.00000000000E+00 0.  1.
<mgrwt>
<rscale>  0 0.12499758E+03</rscale>
<asrwt>0</asrwt>
<pdfrwt beam="1">  1       21 0.43748800E-01 0.12499758E+03</pdfrwt>
<pdfrwt beam="2">  1       21 0.21132475E-02 0.12499758E+03</pdfrwt>
<totfact> 0.55617545E+06</totfact>
</mgrwt>
</event>
<event>
 9    1  0.4541185E-002  0.1250040E+03  0.7818608E-02  0.1235063E+00
         21   -1    0    0  503  502  0.00000000000E+00  0.00000000000E+00  0.58511688134E+02  0.58511688134E+02  0.00000000000E+00 0. -1.
         21   -1    0    0  502  503 -0.00000000000E+00 -0.00000000000E+00 -0.66764387084E+02  0.66764387084E+02  0.00000000000E+00 0. -1.
         25    2    1    2    0    0  0.00000000000E+00  0.00000000000E+00 -0.82526989501E+01  0.12527607522E+03  0.12500395187E+03 0.  0.
    9000006    2    3    3    0    0  0.65935050358E+01 -0.15614239945E+02 -0.85190463383E+01  0.62927323778E+02  0.59999959413E+02 0.  0.
    9000007    2    3    3    0    0 -0.65935050358E+01  0.15614239945E+02  0.26634738814E+00  0.62348751440E+02  0.60000142229E+02 0.  0.
          5    1    4    4  501    0 -0.60673588629E+00 -0.42110064295E+01  0.25370932172E+02  0.26151001948E+02  0.47000000000E+01 0. -1.
         -5    1    4    4    0  501  0.72002409221E+01 -0.11403233516E+02 -0.33889978510E+02  0.36776321830E+02  0.47000000000E+01 0. -1.
         12    1    5    5    0    0 -0.98287368424E+01 -0.14289372825E+02  0.19925210846E+02  0.26415985140E+02  0.00000000000E+00 0. -1.
        -12    1    5    5    0    0  0.32352318065E+01  0.29903612770E+02 -0.19658863458E+02  0.35932766301E+02  0.00000000000E+00 0. -1.
<mgrwt>
<rscale>  0 0.12500395E+03</rscale>
<asrwt>0</asrwt>
<pdfrwt beam="1">  1       21 0.90017982E-02 0.12500395E+03</pdfrwt>
<pdfrwt beam="2">  1       21 0.10271444E-01 0.12500395E+03</pdfrwt>
<totfact> 0.73998825E+06</totfact>
</mgrwt>
</event>
<event>
 9    1  0.4541185E-002  0.1250050E+03  0.7818608E-02  0.1235062E+00
         21   -1    0    0  503  502  0.00000000000E+00  0.00000000000E+00  0.58095703448E+02  0.58095703448E+02  0.00000000000E+00 0.  1.
         21   -1    0    0  502  503 -0.00000000000E+00 -0.00000000000E+00 -0.67243529815E+02  0.67243529815E+02  0.00000000000E+00 0.  1.
         25    2    1    2    0    0  0.00000000000E+00 -0.35527136788E-14 -0.91478263669E+01  0.12533923326E+03  0.12500496257E+03 0.  0.
    9000006    2    3    3    0    0 -0.35251997571E+01  0.54833612934E+01  0.11717136872E+02  0.61480012964E+02  0.60000053443E+02 0.  0.
    9000007    2    3    3    0    0  0.35251997571E+01 -0.54833612934E+01 -0.20864963239E+02  0.63859220300E+02  0.60001325335E+02 0.  0.
          5    1    4    4  501    0 -0.93006544444E+01 -0.17369852050E+02 -0.15250908903E+02  0.25355357535E+02  0.47000000000E+01 0. -1.
         -5    1    4    4    0  501  0.57754546873E+01  0.22853213344E+02  0.26968045775E+02  0.36124655429E+02  0.47000000000E+01 0. -1.
         12    1    5    5    0    0 -0.36134410222E+01 -0.95050069072E+01 -0.40936064037E+02  0.42180131000E+02  0.00000000000E+00 0. -1.
        -12    1    5    5    0    0  0.71386407792E+01  0.40216456139E+01  0.20071100798E+02  0.21679089300E+02  0.00000000000E+00 0. -1.
<mgrwt>
<rscale>  0 0.12500496E+03</rscale>
<asrwt>0</asrwt>
<pdfrwt beam="1">  1       21 0.89378005E-02 0.12500496E+03</pdfrwt>
<pdfrwt beam="2">  1       21 0.10345158E-01 0.12500496E+03</pdfrwt>
<totfact> 0.73988389E+06</totfact>
</mgrwt>
</event>
<event>
 9    1  0.4541185E-002  0.1250030E+03  0.7818608E-02  0.1235065E+00
         21   -1    0    0  503  502  0.00000000000E+00  0.00000000000E+00  0.29381595521E+02  0.29381595521E+02  0.00000000000E+00 0.  1.
         21   -1    0    0  502  503 -0.00000000000E+00 -0.00000000000E+00 -0.13295534569E+03  0.13295534569E+03  0.00000000000E+00 0.  1.
         25    2    1    2    0    0  0.00000000000E+00 -0.17763568394E-14 -0.10357375017E+03  0.16233694121E+03  0.12500304299E+03 0.  0.
    9000006    2    3    3    0    0 -0.27765225412E+01 -0.75850828962E+01 -0.71949719745E+02  0.94033318046E+02  0.60002168056E+02 0.  0.
    9000007    2    3    3    0    0  0.27765225412E+01  0.75850828962E+01 -0.31624030424E+02  0.68303623166E+02  0.60000525642E+02 0.  0.
          5    1    4    4  501    0 -0.75822094639E+01  0.10695842159E+02 -0.73202299018E+02  0.74515485111E+02  0.47000000000E+01 0. -1.
         -5    1    4    4    0  501  0.48056869227E+01 -0.18280925055E+02  0.12525792727E+01  0.19517832935E+02  0.47000000000E+01 0. -1.
         12    1    5    5    0    0  0.23969176278E+02 -0.13223409668E+02 -0.26621252858E+02  0.38184696914E+02  0.00000000000E+00 0.  1.
        -12    1    5    5    0    0 -0.21192653737E+02  0.20808492564E+02 -0.50027775668E+01  0.30118926252E+02  0.00000000000E+00 0.  1.
<mgrwt>
<rscale>  0 0.12500304E+03</rscale>
<asrwt>0</asrwt>
<pdfrwt beam="1">  1       21 0.45202454E-02 0.12500304E+03</pdfrwt>
<pdfrwt beam="2">  1       21 0.20454669E-01 0.12500304E+03</pdfrwt>
<totfact> 0.69229713E+06</totfact>
</mgrwt>
</event>
<event>
 9    1  0.4541185E-002  0.1249971E+03  0.7818608E-02  0.1235074E+00
         21   -1    0    0  503  502  0.00000000000E+00  0.00000000000E+00  0.94324999111E+02  0.94324999111E+02  0.00000000000E+00 0.  1.
         21   -1    0    0  502  503 -0.00000000000E+00 -0.00000000000E+00 -0.41410716736E+02  0.41410716736E+02  0.00000000000E+00 0.  1.
         25    2    1    2    0    0  0.35527136788E-14 -0.17763568394E-14  0.52914282374E+02  0.13573571585E+03  0.12499705307E+03 0.  0.
    9000006    2    3    3    0    0  0.50551331829E+01  0.57658466604E+01  0.93902050931E+01  0.61215395930E+02  0.60002911496E+02 0.  0.
    9000007    2    3    3    0    0 -0.50551331829E+01 -0.57658466604E+01  0.43524077281E+02  0.74520319917E+02  0.60001111807E+02 0.  0.
          5    1    4    4  501    0  0.25743870855E+02 -0.15387089594E+02  0.24079515977E+01  0.30453204160E+02  0.47000000000E+01 0. -1.
         -5    1    4    4    0  501 -0.20688737672E+02  0.21152936254E+02  0.69822534953E+01  0.30762191770E+02  0.47000000000E+01 0. -1.
         12    1    5    5    0    0 -0.16125053930E+02 -0.60538540879E+01 -0.99636879519E+01  0.19898281111E+02  0.00000000000E+00 0.  1.
        -12    1    5    5    0    0  0.11069920747E+02  0.28800742754E+00  0.53487765233E+02  0.54622038806E+02  0.00000000000E+00 0.  1.
<mgrwt>
<rscale>  0 0.12499705E+03</rscale>
<asrwt>0</asrwt>
<pdfrwt beam="1">  1       21 0.14511538E-01 0.12499705E+03</pdfrwt>
<pdfrwt beam="2">  1       21 0.63708795E-02 0.12499705E+03</pdfrwt>
<totfact> 0.72604661E+06</totfact>
</mgrwt>
</event>
<event>
 9    1  0.4541185E-002  0.1249941E+03  0.7818608E-02  0.1235079E+00
         21   -1    0    0  503  502  0.00000000000E+00  0.00000000000E+00  0.64454062379E+02  0.64454062379E+02  0.00000000000E+00 0.  1.
         21   -1    0    0  502  503 -0.00000000000E+00 -0.00000000000E+00 -0.60599444852E+02  0.60599444852E+02  0.00000000000E+00 0.  1.
         25    2    1    2    0    0  0.17763568394E-14 -0.35527136788E-14  0.38546175268E+01  0.12505350723E+03  0.12499408624E+03 0.  0.
    9000006    2    3    3    0    0 -0.41064371145E+01  0.10185109004E+02 -0.11683173731E+02  0.62106895249E+02  0.60001421798E+02 0.  0.
    9000007    2    3    3    0    0  0.41064371145E+01 -0.10185109004E+02  0.15537791258E+02  0.62946611982E+02  0.60002114393E+02 0.  0.
          5    1    4    4  501    0  0.12131426928E+02  0.28889528699E+02 -0.17553044063E+02  0.36221205718E+02  0.47000000000E+01 0.  1.
         -5    1    4    4    0  501 -0.16237864042E+02 -0.18704419695E+02  0.58698703321E+01  0.25885689531E+02  0.47000000000E+01 0.  1.
         12    1    5    5    0    0 -0.21828297085E+01  0.11892597677E+02 -0.18374022619E+02  0.21995529824E+02  0.00000000000E+00 0. -1.
        -12    1    5    5    0    0  0.62892668230E+01 -0.22077706681E+02  0.33911813877E+02  0.40951082158E+02  0.00000000000E+00 0. -1.
<mgrwt>
<rscale>  0 0.12499409E+03</rscale>
<asrwt>0</asrwt>
<pdfrwt beam="1">  1       21 0.99160096E-02 0.12499409E+03</pdfrwt>
<pdfrwt beam="2">  1       21 0.93229915E-02 0.12499409E+03</pdfrwt>
<totfact> 0.74047549E+06</totfact>
</mgrwt>
</event>
<event>
 9    1  0.4541185E-002  0.1250063E+03  0.7818608E-02  0.1235059E+00
         21   -1    0    0  503  502  0.00000000000E+00  0.00000000000E+00  0.14310317520E+02  0.14310317520E+02  0.00000000000E+00 0. -1.
         21   -1    0    0  502  503 -0.00000000000E+00 -0.00000000000E+00 -0.27299476494E+03  0.27299476494E+03  0.00000000000E+00 0. -1.
         25    2    1    2    0    0 -0.26645352591E-14  0.35527136788E-14 -0.25868444742E+03  0.28730508246E+03  0.12500626812E+03 0.  0.
    9000006    2    3    3    0    0 -0.25910634936E+01  0.80068171085E+01 -0.94060842269E+02  0.11188506082E+03  0.60000017138E+02 0.  0.
    9000007    2    3    3    0    0  0.25910634936E+01 -0.80068171085E+01 -0.16462360515E+03  0.17542002164E+03  0.60003582293E+02 0.  0.
          5    1    4    4  501    0  0.24203578481E+02  0.73527889774E+01 -0.18827237765E+02  0.31881524413E+02  0.47000000000E+01 0. -1.
         -5    1    4    4    0  501 -0.26794641975E+02  0.65402813106E+00 -0.75233604504E+02  0.80003536409E+02  0.47000000000E+01 0. -1.
         12    1    5    5    0    0 -0.52010476604E+01 -0.33375230575E+02 -0.83820392313E+02  0.90370432555E+02  0.00000000000E+00 0.  1.
        -12    1    5    5    0    0  0.77921111540E+01  0.25368413466E+02 -0.80803212837E+02  0.85049589081E+02  0.00000000000E+00 0.  1.
<mgrwt>
<rscale>  0 0.12500627E+03</rscale>
<asrwt>0</asrwt>
<pdfrwt beam="1">  1       21 0.22015872E-02 0.12500627E+03</pdfrwt>
<pdfrwt beam="2">  1       21 0.41999197E-01 0.12500627E+03</pdfrwt>
<totfact> 0.56519043E+06</totfact>
</mgrwt>
</event>
<event>
 9    1  0.4541185E-002  0.1250003E+03  0.7818608E-02  0.1235069E+00
         21   -1    0    0  503  502  0.00000000000E+00  0.00000000000E+00  0.56298190576E+03  0.56298190576E+03  0.00000000000E+00 0. -1.
         21   -1    0    0  502  503 -0.00000000000E+00 -0.00000000000E+00 -0.69385321336E+01  0.69385321336E+01  0.00000000000E+00 0. -1.
         25    2    1    2    0    0 -0.35527136788E-14  0.00000000000E+00  0.55604337363E+03  0.56992043789E+03  0.12500028870E+03 0.  0.
    9000006    2    3    3    0    0  0.11723430597E+02 -0.87477367785E+01  0.32181039533E+03  0.32768292171E+03  0.60001707581E+02 0.  0.
    9000007    2    3    3    0    0 -0.11723430597E+02  0.87477367785E+01  0.23423297830E+03  0.24223751619E+03  0.59999703355E+02 0.  0.
          5    1    4    4  501    0  0.34716428405E+02 -0.68194251849E+01  0.14582452426E+03  0.15012866760E+03  0.47000000000E+01 0.  1.
         -5    1    4    4    0  501 -0.22992997808E+02 -0.19283115937E+01  0.17598587107E+03  0.17755425410E+03  0.47000000000E+01 0.  1.
         12    1    5    5    0    0 -0.32515609493E+02  0.13232277893E+02  0.92872627284E+02  0.99285864742E+02  0.00000000000E+00 0.  1.
        -12    1    5    5    0    0  0.20792178896E+02 -0.44845411146E+01  0.14136035101E+03  0.14295165145E+03  0.00000000000E+00 0.  1.
<mgrwt>
<rscale>  0 0.12500029E+03</rscale>
<asrwt>0</asrwt>
<pdfrwt beam="1">  1       21 0.86612565E-01 0.12500029E+03</pdfrwt>
<pdfrwt beam="2">  1       21 0.10674669E-02 0.12500029E+03</pdfrwt>
<totfact> 0.38488994E+06</totfact>
</mgrwt>
</event>
<event>
 9    1  0.4541185E-002  0.1250037E+03  0.7818608E-02  0.1235063E+00
         21   -1    0    0  503  502  0.00000000000E+00  0.00000000000E+00  0.20921698955E+02  0.20921698955E+02  0.00000000000E+00 0.  1.
         21   -1    0    0  502  503 -0.00000000000E+00 -0.00000000000E+00 -0.18671915817E+03  0.18671915817E+03  0.00000000000E+00 0.  1.
         25    2    1    2    0    0 -0.17763568394E-14  0.35527136788E-14 -0.16579745922E+03  0.20764085713E+03  0.12500371221E+03 0.  0.
    9000006    2    3    3    0    0 -0.15733212516E+02 -0.70630538666E+01 -0.87881348429E+02  0.10779904744E+03  0.60000687669E+02 0.  0.
    9000007    2    3    3    0    0  0.15733212516E+02  0.70630538666E+01 -0.77916110791E+02  0.99841809692E+02  0.60000382797E+02 0.  0.
          5    1    4    4  501    0 -0.58988329677E+01 -0.31134464282E+02 -0.28799367868E+02  0.43077194501E+02  0.47000000000E+01 0.  1.
         -5    1    4    4    0  501 -0.98343795488E+01  0.24071410415E+02 -0.59081980561E+02  0.64721852936E+02  0.47000000000E+01 0.  1.
         12    1    5    5    0    0 -0.47108981494E+01  0.82748548450E+01 -0.78770580800E+02  0.79343999040E+02  0.00000000000E+00 0. -1.
        -12    1    5    5    0    0  0.20444110666E+02 -0.12118009784E+01  0.85447000880E+00  0.20497810652E+02  0.00000000000E+00 0. -1.
<mgrwt>
<rscale>  0 0.12500371E+03</rscale>
<asrwt>0</asrwt>
<pdfrwt beam="1">  1       21 0.32187229E-02 0.12500371E+03</pdfrwt>
<pdfrwt beam="2">  1       21 0.28726025E-01 0.12500371E+03</pdfrwt>
<totfact> 0.64102581E+06</totfact>
</mgrwt>
</event>
<event>
 8    1  0.4541185E-002  0.1259598E+03  0.7818608E-02  0.1233577E+00
         21   -1    0    0  503  502  0.00000000000E+00  0.00000000000E+00  0.14114271378E+03  0.14114271378E+03  0.00000000000E+00 0.  1.
         21   -1    0    0  502  503 -0.00000000000E+00 -0.00000000000E+00 -0.28102521398E+02  0.28102521398E+02  0.00000000000E+00 0.  1.
    9000006    2    1    2    0    0  0.47042910247E+01 -0.85757188165E+01  0.34412260255E+02  0.69856947537E+02  0.60000967959E+02 0.  0.
    9000007    2    1    2    0    0 -0.47042910247E+01  0.85757188165E+01  0.78627932123E+02  0.99388287637E+02  0.60000055852E+02 0.  0.
          5    1    3    3  501    0 -0.20500922820E+02 -0.33044149076E+01 -0.56258380752E+01  0.22021513309E+02  0.47000000000E+01 0. -1.
         -5    1    3    3    0  501  0.25205213845E+02 -0.52713039089E+01  0.40038098331E+02  0.47835434228E+02  0.47000000000E+01 0. -1.
         12    1    4    4    0    0  0.21844105664E+02 -0.65879539927E+01  0.58478927649E+02  0.62772215741E+02  0.00000000000E+00 0.  1.
        -12    1    4    4    0    0 -0.26548396689E+02  0.15163672809E+02  0.20149004474E+02  0.36616071896E+02  0.00000000000E+00 0.  1.
<mgrwt>
<rscale>  0 0.12595977E+03</rscale>
<asrwt>0</asrwt>
<pdfrwt beam="1">  1       21 0.21714263E-01 0.12595977E+03</pdfrwt>
<pdfrwt beam="2">  1       21 0.43234649E-02 0.12595977E+03</pdfrwt>
<totfact> 0.66765148E+06</totfact>
</mgrwt>
</event>
<event>
 9    1  0.4541185E-002  0.1250018E+03  0.7818608E-02  0.1235066E+00
         21   -1    0    0  503  502  0.00000000000E+00  0.00000000000E+00  0.27910584312E+02  0.27910584312E+02  0.00000000000E+00 0.  1.
         21   -1    0    0  502  503 -0.00000000000E+00 -0.00000000000E+00 -0.13995996223E+03  0.13995996223E+03  0.00000000000E+00 0.  1.
         25    2    1    2    0    0  0.00000000000E+00  0.00000000000E+00 -0.11204937792E+03  0.16787054654E+03  0.12500182920E+03 0.  0.
    9000006    2    3    3    0    0  0.10137058009E+02  0.12394342440E+02 -0.46515913475E+02  0.77589186028E+02  0.59999765936E+02 0.  0.
    9000007    2    3    3    0    0 -0.10137058009E+02 -0.12394342440E+02 -0.65533464441E+02  0.90281360513E+02  0.59997578491E+02 0.  0.
          5    1    4    4  501    0  0.31672686128E+02  0.21156835027E+02 -0.28501533532E+02  0.47803745968E+02  0.47000000000E+01 0. -1.
         -5    1    4    4    0  501 -0.21535628119E+02 -0.87624925869E+01 -0.18014379943E+02  0.29785440060E+02  0.47000000000E+01 0. -1.
         12    1    5    5    0    0  0.27693275214E+01 -0.17217833588E+02  0.52162189819E+01  0.18202524793E+02  0.00000000000E+00 0. -1.
        -12    1    5    5    0    0 -0.12906385530E+02  0.48234911473E+01 -0.70749683423E+02  0.72078835720E+02  0.00000000000E+00 0. -1.
<mgrwt>
<rscale>  0 0.12500183E+03</rscale>
<asrwt>0</asrwt>
<pdfrwt beam="1">  1       21 0.42939360E-02 0.12500183E+03</pdfrwt>
<pdfrwt beam="2">  1       21 0.21532302E-01 0.12500183E+03</pdfrwt>
<totfact> 0.68567173E+06</totfact>
</mgrwt>
</event>
<event>
 9    1  0.4541185E-002  0.1249960E+03  0.7818608E-02  0.1235076E+00
         21   -1    0    0  503  502  0.00000000000E+00  0.00000000000E+00  0.10069080289E+02  0.10069080289E+02  0.00000000000E+00 0. -1.
         21   -1    0    0  502  503 -0.00000000000E+00 -0.00000000000E+00 -0.38792021937E+03  0.38792021937E+03  0.00000000000E+00 0. -1.
         25    2    1    2    0    0  0.17763568394E-14  0.00000000000E+00 -0.37785113908E+03  0.39798929966E+03  0.12499599729E+03 0.  0.
    9000006    2    3    3    0    0 -0.76795455666E+01 -0.12586506418E+02 -0.21891401498E+03  0.22746604485E+03  0.60000500310E+02 0.  0.
    9000007    2    3    3    0    0  0.76795455666E+01  0.12586506418E+02 -0.15893712409E+03  0.17052325481E+03  0.59998128735E+02 0.  0.
          5    1    4    4  501    0 -0.15726782133E+02 -0.27944704203E+02 -0.66287229924E+02  0.73785669478E+02  0.47000000000E+01 0.  1.
         -5    1    4    4    0  501  0.80472365666E+01  0.15358197785E+02 -0.15262678506E+03  0.15368037537E+03  0.47000000000E+01 0.  1.
         12    1    5    5    0    0  0.27221115590E+02  0.14080776642E+02 -0.42212226470E+02  0.52164446401E+02  0.00000000000E+00 0.  1.
        -12    1    5    5    0    0 -0.19541570024E+02 -0.14942702232E+01 -0.11672489762E+03  0.11835880841E+03  0.00000000000E+00 0.  1.
<mgrwt>
<rscale>  0 0.12499600E+03</rscale>
<asrwt>0</asrwt>
<pdfrwt beam="1">  1       21 0.15490892E-02 0.12499600E+03</pdfrwt>
<pdfrwt beam="2">  1       21 0.59680036E-01 0.12499600E+03</pdfrwt>
<totfact> 0.48179824E+06</totfact>
</mgrwt>
</event>
<event>
 9    1  0.4541185E-002  0.1249984E+03  0.7818608E-02  0.1235072E+00
         21   -1    0    0  503  502  0.00000000000E+00  0.00000000000E+00  0.62167587499E+02  0.62167587499E+02  0.00000000000E+00 0.  1.
         21   -1    0    0  502  503 -0.00000000000E+00 -0.00000000000E+00 -0.62832608423E+02  0.62832608423E+02  0.00000000000E+00 0.  1.
         25    2    1    2    0    0  0.53290705182E-14  0.88817841970E-15 -0.66502092415E+00  0.12500019592E+03  0.12499842690E+03 0.  0.
    9000006    2    3    3    0    0 -0.11204280044E+02 -0.49301138056E+01  0.12167786420E+02  0.62433747515E+02  0.60000632405E+02 0.  0.
    9000007    2    3    3    0    0  0.11204280044E+02  0.49301138056E+01 -0.12832807344E+02  0.62566448407E+02  0.60000313403E+02 0.  0.
          5    1    4    4  501    0 -0.66251471195E+01  0.22096274840E+02  0.22691606425E+02  0.32697659523E+02  0.47000000000E+01 0.  1.
         -5    1    4    4    0  501 -0.45791329250E+01 -0.27026388645E+02 -0.10523820006E+02  0.29736087992E+02  0.47000000000E+01 0.  1.
         12    1    5    5    0    0  0.35308203472E+02 -0.35686125551E+01 -0.98825586754E+01  0.36838420080E+02  0.00000000000E+00 0. -1.
        -12    1    5    5    0    0 -0.24103923428E+02  0.84987263608E+01 -0.29502486682E+01  0.25728028327E+02  0.00000000000E+00 0. -1.
<mgrwt>
<rscale>  0 0.12499843E+03</rscale>
<asrwt>0</asrwt>
<pdfrwt beam="1">  1       21 0.95642442E-02 0.12499843E+03</pdfrwt>
<pdfrwt beam="2">  1       21 0.96665552E-02 0.12499843E+03</pdfrwt>
<totfact> 0.74046533E+06</totfact>
</mgrwt>
</event>
<event>
 9    1  0.4541185E-002  0.1249971E+03  0.7818608E-02  0.1235074E+00
         21   -1    0    0  503  502  0.00000000000E+00  0.00000000000E+00  0.12908055797E+02  0.12908055797E+02  0.00000000000E+00 0. -1.
         21   -1    0    0  502  503 -0.00000000000E+00 -0.00000000000E+00 -0.30260686265E+03  0.30260686265E+03  0.00000000000E+00 0. -1.
         25    2    1    2    0    0  0.00000000000E+00  0.17763568394E-14 -0.28969880686E+03  0.31551491845E+03  0.12499706025E+03 0.  0.
    9000006    2    3    3    0    0 -0.31211112176E+01  0.14969126118E+02 -0.16635141789E+03  0.17749951984E+03  0.59995576799E+02 0.  0.
    9000007    2    3    3    0    0  0.31211112176E+01 -0.14969126118E+02 -0.12334738897E+03  0.13801539862E+03  0.59998798476E+02 0.  0.
          5    1    4    4  501    0 -0.29832004410E+02  0.70498958085E+01 -0.61071301734E+02  0.68494112254E+02  0.47000000000E+01 0. -1.
         -5    1    4    4    0  501  0.26710893192E+02  0.79192303100E+01 -0.10528011616E+03  0.10900540758E+03  0.47000000000E+01 0. -1.
         12    1    5    5    0    0  0.21517074535E+02 -0.30074332771E+02 -0.61708132958E+02  0.71939861422E+02  0.00000000000E+00 0. -1.
        -12    1    5    5    0    0 -0.18395963318E+02  0.15105206652E+02 -0.61639256007E+02  0.66075537194E+02  0.00000000000E+00 0. -1.
<mgrwt>
<rscale>  0 0.12499706E+03</rscale>
<asrwt>0</asrwt>
<pdfrwt beam="1">  1       21 0.19858547E-02 0.12499706E+03</pdfrwt>
<pdfrwt beam="2">  1       21 0.46554902E-01 0.12499706E+03</pdfrwt>
<totfact> 0.54194685E+06</totfact>
</mgrwt>
</event>
<event>
 9    1  0.4541185E-002  0.1249959E+03  0.7818608E-02  0.1235076E+00
         21   -1    0    0  503  502  0.00000000000E+00  0.00000000000E+00  0.69415209122E+02  0.69415209122E+02  0.00000000000E+00 0.  1.
         21   -1    0    0  502  503 -0.00000000000E+00 -0.00000000000E+00 -0.56269973383E+02  0.56269973383E+02  0.00000000000E+00 0.  1.
         25    2    1    2    0    0 -0.88817841970E-15  0.00000000000E+00  0.13145235739E+02  0.12568518250E+03  0.12499587145E+03 0.  0.
    9000006    2    3    3    0    0 -0.64834102952E+01 -0.38836923408E+01 -0.92906720583E+01  0.61183094377E+02  0.59999473123E+02 0.  0.
    9000007    2    3    3    0    0  0.64834102952E+01  0.38836923408E+01  0.22435907797E+02  0.64502088127E+02  0.60000264489E+02 0.  0.
          5    1    4    4  501    0  0.52200702826E+01 -0.28798240637E+02 -0.14136710652E+02  0.32840895018E+02  0.47000000000E+01 0.  1.
         -5    1    4    4    0  501 -0.11703480578E+02  0.24914548296E+02  0.48460385939E+01  0.28342199359E+02  0.47000000000E+01 0.  1.
         12    1    5    5    0    0 -0.60557626136E+01 -0.20505177429E+02 -0.86362428225E+01  0.23059038408E+02  0.00000000000E+00 0. -1.
        -12    1    5    5    0    0  0.12539172909E+02  0.24388869769E+02  0.31072150620E+02  0.41443049719E+02  0.00000000000E+00 0. -1.
<mgrwt>
<rscale>  0 0.12499587E+03</rscale>
<asrwt>0</asrwt>
<pdfrwt beam="1">  1       21 0.10679263E-01 0.12499587E+03</pdfrwt>
<pdfrwt beam="2">  1       21 0.86569190E-02 0.12499587E+03</pdfrwt>
<totfact> 0.73957381E+06</totfact>
</mgrwt>
</event>
<event>
 9    1  0.4541185E-002  0.1249975E+03  0.7818608E-02  0.1235073E+00
         21   -1    0    0  503  502  0.00000000000E+00  0.00000000000E+00  0.16866598540E+04  0.16866598540E+04  0.00000000000E+00 0. -1.
         21   -1    0    0  502  503 -0.00000000000E+00 -0.00000000000E+00 -0.23158767212E+01  0.23158767212E+01  0.00000000000E+00 0. -1.
         25    2    1    2    0    0  0.35527136788E-14  0.00000000000E+00  0.16843439772E+04  0.16889757307E+04  0.12499754065E+03 0.  0.
    9000006    2    3    3    0    0  0.86658120942E+01  0.14242474024E+02  0.91337369573E+03  0.91549405266E+03  0.59999233684E+02 0.  0.
    9000007    2    3    3    0    0 -0.86658120942E+01 -0.14242474024E+02  0.77097028152E+03  0.77348167803E+03  0.60006557108E+02 0.  0.
          5    1    4    4  501    0  0.28711668473E+02  0.10854037037E+02  0.26962427133E+03  0.27140653588E+03  0.47000000000E+01 0. -1.
         -5    1    4    4    0  501 -0.20045856379E+02  0.33884369863E+01  0.64374942440E+03  0.64408751678E+03  0.47000000000E+01 0. -1.
         12    1    5    5    0    0 -0.28131229930E+02 -0.21037553439E+02  0.29816764836E+03  0.30022973084E+03  0.00000000000E+00 0. -1.
        -12    1    5    5    0    0  0.19465417836E+02  0.67950794153E+01  0.47280263315E+03  0.47325194718E+03  0.00000000000E+00 0. -1.
<mgrwt>
<rscale>  0 0.12499754E+03</rscale>
<asrwt>0</asrwt>
<pdfrwt beam="1">  1       21 0.25948515E+00 0.12499754E+03</pdfrwt>
<pdfrwt beam="2">  1       21 0.35629007E-03 0.12499754E+03</pdfrwt>
<totfact> 0.11408877E+06</totfact>
</mgrwt>
</event>
<event>
 9    1  0.4541185E-002  0.1250052E+03  0.7818608E-02  0.1235061E+00
         21   -1    0    0  503  502  0.00000000000E+00  0.00000000000E+00  0.11343646124E+04  0.11343646124E+04  0.00000000000E+00 0. -1.
         21   -1    0    0  502  503 -0.00000000000E+00 -0.00000000000E+00 -0.34438457464E+01  0.34438457464E+01  0.00000000000E+00 0. -1.
         25    2    1    2    0    0 -0.17763568394E-14 -0.17763568394E-14  0.11309207666E+04  0.11378084581E+04  0.12500522781E+03 0.  0.
    9000006    2    3    3    0    0  0.93183210951E+01  0.14706228120E+02  0.54848194347E+03  0.55202861888E+03  0.60000412466E+02 0.  0.
    9000007    2    3    3    0    0 -0.93183210951E+01 -0.14706228120E+02  0.58243882314E+03  0.58577983923E+03  0.59999442381E+02 0.  0.
          5    1    4    4  501    0  0.37697163555E+01  0.14331016376E+02  0.32824628674E+02  0.36319898669E+02  0.47000000000E+01 0. -1.
         -5    1    4    4    0  501  0.55486047395E+01  0.37521174430E+00  0.51565731480E+03  0.51570872022E+03  0.47000000000E+01 0. -1.
         12    1    5    5    0    0 -0.15167585220E+02  0.41503641143E+01  0.52120012956E+03  0.52143729845E+03  0.00000000000E+00 0. -1.
        -12    1    5    5    0    0  0.58492641253E+01 -0.18856592234E+02  0.61238693583E+02  0.64342540774E+02  0.00000000000E+00 0. -1.
<mgrwt>
<rscale>  0 0.12500523E+03</rscale>
<asrwt>0</asrwt>
<pdfrwt beam="1">  1       21 0.17451733E+00 0.12500523E+03</pdfrwt>
<pdfrwt beam="2">  1       21 0.52982333E-03 0.12500523E+03</pdfrwt>
<totfact> 0.20425827E+06</totfact>
</mgrwt>
</event>
<event>
 9    1  0.4541185E-002  0.1250191E+03  0.7818608E-02  0.1235039E+00
         21   -1    0    0  503  502  0.00000000000E+00  0.00000000000E+00  0.21902377895E+03  0.21902377895E+03  0.00000000000E+00 0.  1.
         21   -1    0    0  502  503 -0.00000000000E+00 -0.00000000000E+00 -0.17840284238E+02  0.17840284238E+02  0.00000000000E+00 0.  1.
         25    2    1    2    0    0 -0.88817841970E-15  0.00000000000E+00  0.20118349471E+03  0.23686406318E+03  0.12501914208E+03 0.  0.
    9000006    2    3    3    0    0 -0.63824977210E+01  0.14949941304E+02  0.11305401493E+03  0.12901716701E+03  0.59999850575E+02 0.  0.
    9000007    2    3    3    0    0  0.63824977210E+01 -0.14949941304E+02  0.88129479779E+02  0.10784689618E+03  0.59999256551E+02 0.  0.
          5    1    4    4  501    0  0.64105110885E+01  0.36048534903E+02  0.63128766769E+02  0.73129492784E+02  0.47000000000E+01 0.  1.
         -5    1    4    4    0  501 -0.12793008810E+02 -0.21098593600E+02  0.49925248160E+02  0.55887674224E+02  0.47000000000E+01 0.  1.
         12    1    5    5    0    0 -0.63556308046E+01 -0.36493954215E+02  0.49708648192E+02  0.61993164480E+02  0.00000000000E+00 0. -1.
        -12    1    5    5    0    0  0.12738128526E+02  0.21544012911E+02  0.38420831586E+02  0.45853731696E+02  0.00000000000E+00 0. -1.
<mgrwt>
<rscale>  0 0.12501914E+03</rscale>
<asrwt>0</asrwt>
<pdfrwt beam="1">  1       21 0.33695964E-01 0.12501914E+03</pdfrwt>
<pdfrwt beam="2">  1       21 0.27446593E-02 0.12501914E+03</pdfrwt>
<totfact> 0.61107929E+06</totfact>
</mgrwt>
</event>
<event>
 9    1  0.4541185E-002  0.1250018E+03  0.7818608E-02  0.1235066E+00
         21   -1    0    0  503  502  0.00000000000E+00  0.00000000000E+00  0.40437424123E+02  0.40437424123E+02  0.00000000000E+00 0.  1.
         21   -1    0    0  502  503 -0.00000000000E+00 -0.00000000000E+00 -0.96602655224E+02  0.96602655224E+02  0.00000000000E+00 0.  1.
         25    2    1    2    0    0  0.17763568394E-14  0.44408920985E-15 -0.56165231101E+02  0.13704007935E+03  0.12500180064E+03 0.  0.
    9000006    2    3    3    0    0 -0.15585947812E+02  0.70508645065E+00 -0.36758548209E+02  0.72078969067E+02  0.60006399652E+02 0.  0.
    9000007    2    3    3    0    0  0.15585947812E+02 -0.70508645065E+00 -0.19406682891E+02  0.64961110279E+02  0.59999229926E+02 0.  0.
          5    1    4    4  501    0  0.45478428762E+01  0.10690707742E+02 -0.45739044590E+02  0.47424933388E+02  0.47000000000E+01 0.  1.
         -5    1    4    4    0  501 -0.20133790689E+02 -0.99856212911E+01  0.89804963802E+01  0.24654035680E+02  0.47000000000E+01 0.  1.
         12    1    5    5    0    0  0.10313101335E+02  0.21463602448E+01  0.21328057154E+02  0.23787663681E+02  0.00000000000E+00 0. -1.
        -12    1    5    5    0    0  0.52728464776E+01 -0.28514466954E+01 -0.40734740045E+02  0.41173446598E+02  0.00000000000E+00 0. -1.
<mgrwt>
<rscale>  0 0.12500180E+03</rscale>
<asrwt>0</asrwt>
<pdfrwt beam="1">  1       21 0.62211423E-02 0.12500180E+03</pdfrwt>
<pdfrwt beam="2">  1       21 0.14861947E-01 0.12500180E+03</pdfrwt>
<totfact> 0.72424137E+06</totfact>
</mgrwt>
</event>
<event>
 9    1  0.4541185E-002  0.1250006E+03  0.7818608E-02  0.1235068E+00
         21   -1    0    0  503  502  0.00000000000E+00  0.00000000000E+00  0.98661894565E+01  0.98661894565E+01  0.00000000000E+00 0. -1.
         21   -1    0    0  502  503 -0.00000000000E+00 -0.00000000000E+00 -0.39592690499E+03  0.39592690499E+03  0.00000000000E+00 0. -1.
         25    2    1    2    0    0 -0.17763568394E-14  0.00000000000E+00 -0.38606071553E+03  0.40579309444E+03  0.12500063769E+03 0.  0.
    9000006    2    3    3    0    0 -0.94444194804E+01  0.75529916502E+01 -0.15194672832E+03  0.16381055938E+03  0.59998719773E+02 0.  0.
    9000007    2    3    3    0    0  0.94444194804E+01 -0.75529916502E+01 -0.23411398721E+03  0.24198253506E+03  0.59999529389E+02 0.  0.
          5    1    4    4  501    0 -0.14932547673E+00  0.20364890493E+02 -0.14395900427E+03  0.14546833324E+03  0.47000000000E+01 0.  1.
         -5    1    4    4    0  501 -0.92950940036E+01 -0.12811898842E+02 -0.79877240499E+01  0.18342226146E+02  0.47000000000E+01 0.  1.
         12    1    5    5    0    0  0.10055672241E+02 -0.33187449398E+02 -0.15438553968E+03  0.15823216552E+03  0.00000000000E+00 0. -1.
        -12    1    5    5    0    0 -0.61125276092E+00  0.25634457748E+02 -0.79728447526E+02  0.83750369545E+02  0.00000000000E+00 0. -1.
<mgrwt>
<rscale>  0 0.12500064E+03</rscale>
<asrwt>0</asrwt>
<pdfrwt beam="1">  1       21 0.15178755E-02 0.12500064E+03</pdfrwt>
<pdfrwt beam="2">  1       21 0.60911823E-01 0.12500064E+03</pdfrwt>
<totfact> 0.47658704E+06</totfact>
</mgrwt>
</event>
<event>
 9    1  0.4541185E-002  0.1249999E+03  0.7818608E-02  0.1235069E+00
         21   -1    0    0  503  502  0.00000000000E+00  0.00000000000E+00  0.58278557881E+03  0.58278557881E+03  0.00000000000E+00 0. -1.
         21   -1    0    0  502  503 -0.00000000000E+00 -0.00000000000E+00 -0.67027161791E+01  0.67027161791E+01  0.00000000000E+00 0. -1.
         25    2    1    2    0    0 -0.35527136788E-14 -0.17763568394E-14  0.57608286263E+03  0.58948829499E+03  0.12499994125E+03 0.  0.
    9000006    2    3    3    0    0 -0.10410810653E+02  0.10575433727E+02  0.24430903873E+03  0.25200628673E+03  0.60000311410E+02 0.  0.
    9000007    2    3    3    0    0  0.10410810653E+02 -0.10575433727E+02  0.33177382390E+03  0.33748200826E+03  0.60000090799E+02 0.  0.
          5    1    4    4  501    0 -0.59402002394E+01  0.29881085578E+02  0.69687201812E+02  0.76200796260E+02  0.47000000000E+01 0. -1.
         -5    1    4    4    0  501 -0.44706104139E+01 -0.19305651851E+02  0.17462183692E+03  0.17580549047E+03  0.47000000000E+01 0. -1.
         12    1    5    5    0    0 -0.24864287767E+02 -0.64185117595E-01  0.12293252133E+03  0.12542185506E+03  0.00000000000E+00 0.  1.
        -12    1    5    5    0    0  0.35275098420E+02 -0.10511248610E+02  0.20884130257E+03  0.21206015320E+03  0.00000000000E+00 0.  1.
<mgrwt>
<rscale>  0 0.12499994E+03</rscale>
<asrwt>0</asrwt>
<pdfrwt beam="1">  1       21 0.89659280E-01 0.12499994E+03</pdfrwt>
<pdfrwt beam="2">  1       21 0.10311876E-02 0.12499994E+03</pdfrwt>
<totfact> 0.37572431E+06</totfact>
</mgrwt>
</event>
<event>
 9    1  0.4541185E-002  0.1250010E+03  0.7818608E-02  0.1235068E+00
         21   -1    0    0  503  502  0.00000000000E+00  0.00000000000E+00  0.75428342741E+02  0.75428342741E+02  0.00000000000E+00 0.  1.
         21   -1    0    0  502  503 -0.00000000000E+00 -0.00000000000E+00 -0.51788397023E+02  0.51788397023E+02  0.00000000000E+00 0.  1.
         25    2    1    2    0    0  0.00000000000E+00 -0.88817841970E-15  0.23639945718E+02  0.12721673976E+03  0.12500100737E+03 0.  0.
    9000006    2    3    3    0    0  0.31604850055E+01 -0.67517362507E+01  0.27931722116E+02  0.66602696642E+02  0.60001362416E+02 0.  0.
    9000007    2    3    3    0    0 -0.31604850055E+01  0.67517362507E+01 -0.42917763976E+01  0.60614043122E+02  0.60000568923E+02 0.  0.
          5    1    4    4  501    0 -0.25098662326E+02 -0.11745506405E+02  0.24565853757E+02  0.37329223700E+02  0.47000000000E+01 0.  1.
         -5    1    4    4    0  501  0.28259147331E+02  0.49937701547E+01  0.33658683592E+01  0.29273472942E+02  0.47000000000E+01 0.  1.
         12    1    5    5    0    0 -0.25269292095E+02  0.36752203364E+01 -0.20731796617E+02  0.32891514992E+02  0.00000000000E+00 0. -1.
        -12    1    5    5    0    0  0.22108807089E+02  0.30765159143E+01  0.16440020220E+02  0.27722528130E+02  0.00000000000E+00 0. -1.
<mgrwt>
<rscale>  0 0.12500101E+03</rscale>
<asrwt>0</asrwt>
<pdfrwt beam="1">  1       21 0.11604360E-01 0.12500101E+03</pdfrwt>
<pdfrwt beam="2">  1       21 0.79674457E-02 0.12500101E+03</pdfrwt>
<totfact> 0.73737764E+06</totfact>
</mgrwt>
</event>
<event>
 9    1  0.4541185E-002  0.1250020E+03  0.7818608E-02  0.1235066E+00
         21   -1    0    0  503  502  0.00000000000E+00  0.00000000000E+00  0.48744787896E+03  0.48744787896E+03  0.00000000000E+00 0.  1.
         21   -1    0    0  502  503 -0.00000000000E+00 -0.00000000000E+00 -0.80139341507E+01  0.80139341507E+01  0.00000000000E+00 0.  1.
         25    2    1    2    0    0 -0.17763568394E-14  0.35527136788E-14  0.47943394480E+03  0.49546181311E+03  0.12500200325E+03 0.  0.
    9000006    2    3    3    0    0 -0.48935808270E+01  0.16766890201E+02  0.24395051709E+03  0.25182764970E+03  0.60001955147E+02 0.  0.
    9000007    2    3    3    0    0  0.48935808270E+01 -0.16766890201E+02  0.23548342771E+03  0.24363416341E+03  0.60000709272E+02 0.  0.
          5    1    4    4  501    0  0.31234952237E+01  0.20816864517E+02  0.26620509679E+02  0.34261342740E+02  0.47000000000E+01 0.  1.
         -5    1    4    4    0  501 -0.80170760507E+01 -0.40499743168E+01  0.21733000741E+03  0.21756630696E+03  0.47000000000E+01 0.  1.
         12    1    5    5    0    0 -0.56511709891E+01 -0.22288192525E+02  0.22886088807E+03  0.23001305474E+03  0.00000000000E+00 0. -1.
        -12    1    5    5    0    0  0.10544751816E+02  0.55213023246E+01  0.66225396388E+01  0.13621108673E+02  0.00000000000E+00 0. -1.
<mgrwt>
<rscale>  0 0.12500200E+03</rscale>
<asrwt>0</asrwt>
<pdfrwt beam="1">  1       21 0.74991958E-01 0.12500200E+03</pdfrwt>
<pdfrwt beam="2">  1       21 0.12329133E-02 0.12500200E+03</pdfrwt>
<totfact> 0.42289159E+06</totfact>
</mgrwt>
</event>
<event>
 9    1  0.4541185E-002  0.1250174E+03  0.7818608E-02  0.1235042E+00
         21   -1    0    0  503  502  0.00000000000E+00  0.00000000000E+00  0.52421622451E+02  0.52421622451E+02  0.00000000000E+00 0. -1.
         21   -1    0    0  502  503 -0.00000000000E+00 -0.00000000000E+00 -0.74536773262E+02  0.74536773262E+02  0.00000000000E+00 0. -1.
         25    2    1    2    0    0  0.00000000000E+00  0.44408920985E-15 -0.22115150811E+02  0.12695839571E+03  0.12501741617E+03 0.  0.
    9000006    2    3    3    0    0  0.13027746636E+02 -0.12723800105E+01  0.77360205922E+00  0.61415515594E+02  0.59999383016E+02 0.  0.
    9000007    2    3    3    0    0 -0.13027746636E+02  0.12723800105E+01 -0.22888752871E+02  0.65542880119E+02  0.60005274709E+02 0.  0.
          5    1    4    4  501    0 -0.21217841404E+02  0.55018552865E+00  0.12243796524E+02  0.24949950928E+02  0.47000000000E+01 0.  1.
         -5    1    4    4    0  501  0.34245588040E+02 -0.18225655392E+01 -0.11470194465E+02  0.36465564666E+02  0.47000000000E+01 0.  1.
         12    1    5    5    0    0  0.19586701110E+02 -0.53595809294E+01 -0.24983250830E+02  0.32195136126E+02  0.00000000000E+00 0.  1.
        -12    1    5    5    0    0 -0.32614447746E+02  0.66319609399E+01  0.20944979593E+01  0.33347743993E+02  0.00000000000E+00 0.  1.
<mgrwt>
<rscale>  0 0.12501742E+03</rscale>
<asrwt>0</asrwt>
<pdfrwt beam="1">  1       21 0.80648650E-02 0.12501742E+03</pdfrwt>
<pdfrwt beam="2">  1       21 0.11467196E-01 0.12501742E+03</pdfrwt>
<totfact> 0.73742013E+06</totfact>
</mgrwt>
</event>
<event>
 9    1  0.4541185E-002  0.1250578E+03  0.7818608E-02  0.1234979E+00
         21   -1    0    0  503  502  0.00000000000E+00  0.00000000000E+00  0.30717587208E+01  0.30717587208E+01  0.00000000000E+00 0.  1.
         21   -1    0    0  502  503 -0.00000000000E+00 -0.00000000000E+00 -0.12728418211E+04  0.12728418211E+04  0.00000000000E+00 0.  1.
         25    2    1    2    0    0  0.17763568394E-14  0.00000000000E+00 -0.12697700624E+04  0.12759135798E+04  0.12505779406E+03 0.  0.
    9000006    2    3    3    0    0 -0.89191849777E+01  0.13421911822E+02 -0.70719863204E+03  0.70992222341E+03  0.59999654700E+02 0.  0.
    9000007    2    3    3    0    0  0.89191849777E+01 -0.13421911822E+02 -0.56257143032E+03  0.56599135638E+03  0.59999180931E+02 0.  0.
          5    1    4    4  501    0 -0.19364773279E+01  0.25460044754E+02 -0.13161903815E+03  0.13415522735E+03  0.47000000000E+01 0. -1.
         -5    1    4    4    0  501 -0.69827076498E+01 -0.12038132932E+02 -0.57557959389E+03  0.57576699606E+03  0.47000000000E+01 0. -1.
         12    1    5    5    0    0  0.31549332320E+02  0.53733083777E+01 -0.33532768302E+03  0.33685143285E+03  0.00000000000E+00 0. -1.
        -12    1    5    5    0    0 -0.22630147343E+02 -0.18795220200E+02 -0.22724374730E+03  0.22913992353E+03  0.00000000000E+00 0. -1.
<mgrwt>
<rscale>  0 0.12505779E+03</rscale>
<asrwt>0</asrwt>
<pdfrwt beam="1">  1       21 0.47257747E-03 0.12505779E+03</pdfrwt>
<pdfrwt beam="2">  1       21 0.19582215E+00 0.12505779E+03</pdfrwt>
<totfact> 0.17665073E+06</totfact>
</mgrwt>
</event>
<event>
 9    1  0.4541185E-002  0.1249952E+03  0.7818608E-02  0.1235077E+00
         21   -1    0    0  503  502  0.00000000000E+00  0.00000000000E+00  0.25233967461E+02  0.25233967461E+02  0.00000000000E+00 0. -1.
         21   -1    0    0  502  503 -0.00000000000E+00 -0.00000000000E+00 -0.15478925324E+03  0.15478925324E+03  0.00000000000E+00 0. -1.
         25    2    1    2    0    0  0.00000000000E+00  0.00000000000E+00 -0.12955528578E+03  0.18002322070E+03  0.12499515158E+03 0.  0.
    9000006    2    3    3    0    0 -0.19356015208E+01 -0.17167787762E+02 -0.60826010359E+02  0.87167664042E+02  0.59999321899E+02 0.  0.
    9000007    2    3    3    0    0  0.19356015208E+01  0.17167787762E+02 -0.68729275423E+02  0.92855556662E+02  0.59999680107E+02 0.  0.
          5    1    4    4  501    0 -0.24276812161E+02 -0.66454786175E+01 -0.52035981421E+01  0.26128402714E+02  0.47000000000E+01 0. -1.
         -5    1    4    4    0  501  0.22341210640E+02 -0.10522309144E+02 -0.55622412217E+02  0.61039261328E+02  0.47000000000E+01 0. -1.
         12    1    5    5    0    0  0.14007576979E+02 -0.10848530931E+02 -0.62735370178E-01  0.17717414368E+02  0.00000000000E+00 0.  1.
        -12    1    5    5    0    0 -0.12071975458E+02  0.28016318693E+02 -0.68666540053E+02  0.75138142294E+02  0.00000000000E+00 0.  1.
<mgrwt>
<rscale>  0 0.12499515E+03</rscale>
<asrwt>0</asrwt>
<pdfrwt beam="1">  1       21 0.38821488E-02 0.12499515E+03</pdfrwt>
<pdfrwt beam="2">  1       21 0.23813732E-01 0.12499515E+03</pdfrwt>
<totfact> 0.67157131E+06</totfact>
</mgrwt>
</event>
<event>
 9    1  0.4541185E-002  0.1249961E+03  0.7818608E-02  0.1235075E+00
         21   -1    0    0  503  502  0.00000000000E+00  0.00000000000E+00  0.58674805067E+02  0.58674805067E+02  0.00000000000E+00 0.  1.
         21   -1    0    0  502  503 -0.00000000000E+00 -0.00000000000E+00 -0.66570451693E+02  0.66570451693E+02  0.00000000000E+00 0.  1.
         25    2    1    2    0    0 -0.17763568394E-14 -0.17763568394E-14 -0.78956466259E+01  0.12524525676E+03  0.12499613236E+03 0.  0.
    9000006    2    3    3    0    0  0.11559827984E+02  0.12335644344E+02 -0.84472461778E+01  0.62906823328E+02  0.60000955899E+02 0.  0.
    9000007    2    3    3    0    0 -0.11559827984E+02 -0.12335644344E+02  0.55159955185E+00  0.62338433433E+02  0.59999818969E+02 0.  0.
          5    1    4    4  501    0  0.21068356008E+02  0.32800159410E+02 -0.45298020823E+01  0.39526385986E+02  0.47000000000E+01 0. -1.
         -5    1    4    4    0  501 -0.95085280232E+01 -0.20464515066E+02 -0.39174440955E+01  0.23380437342E+02  0.47000000000E+01 0. -1.
         12    1    5    5    0    0  0.15422271497E+02 -0.10570911847E+02  0.21236233070E+02  0.28294314454E+02  0.00000000000E+00 0. -1.
        -12    1    5    5    0    0 -0.26982099482E+02 -0.17647324976E+01 -0.20684633519E+02  0.34044118979E+02  0.00000000000E+00 0. -1.
<mgrwt>
<rscale>  0 0.12499613E+03</rscale>
<asrwt>0</asrwt>
<pdfrwt beam="1">  1       21 0.90268930E-02 0.12499613E+03</pdfrwt>
<pdfrwt beam="2">  1       21 0.10241608E-01 0.12499613E+03</pdfrwt>
<totfact> 0.74017780E+06</totfact>
</mgrwt>
</event>
<event>
 9    1  0.4541185E-002  0.1250001E+03  0.7818608E-02  0.1235069E+00
         21   -1    0    0  503  502  0.00000000000E+00  0.00000000000E+00  0.61847257297E+01  0.61847257297E+01  0.00000000000E+00 0. -1.
         21   -1    0    0  502  503 -0.00000000000E+00 -0.00000000000E+00 -0.63159712261E+03  0.63159712261E+03  0.00000000000E+00 0. -1.
         25    2    1    2    0    0  0.35527136788E-14  0.00000000000E+00 -0.62541239688E+03  0.63778184834E+03  0.12500007960E+03 0.  0.
    9000006    2    3    3    0    0  0.14248266962E+02 -0.78225915708E+01 -0.27965977245E+03  0.28648518669E+03  0.59999731790E+02 0.  0.
    9000007    2    3    3    0    0 -0.14248266962E+02  0.78225915708E+01 -0.34575262443E+03  0.35129666165E+03  0.60002176097E+02 0.  0.
          5    1    4    4  501    0  0.28468142904E+02 -0.88835856618E+01 -0.26000562288E+03  0.26175249222E+03  0.47000000000E+01 0. -1.
         -5    1    4    4    0  501 -0.14219875942E+02  0.10609940910E+01 -0.19654149566E+02  0.24732694464E+02  0.47000000000E+01 0. -1.
         12    1    5    5    0    0 -0.13624911967E+02  0.12106086241E+02 -0.27362257039E+02  0.32876871209E+02  0.00000000000E+00 0.  1.
        -12    1    5    5    0    0 -0.62335499472E+00 -0.42834946702E+01 -0.31839036739E+03  0.31841979044E+03  0.00000000000E+00 0.  1.
<mgrwt>
<rscale>  0 0.12500008E+03</rscale>
<asrwt>0</asrwt>
<pdfrwt beam="1">  1       21 0.95149614E-03 0.12500008E+03</pdfrwt>
<pdfrwt beam="2">  1       21 0.97168801E-01 0.12500008E+03</pdfrwt>
<totfact> 0.35437765E+06</totfact>
</mgrwt>
</event>
<event>
 9    1  0.4541185E-002  0.1249666E+03  0.7818608E-02  0.1235122E+00
         21   -1    0    0  503  502  0.00000000000E+00  0.00000000000E+00  0.15067581788E+03  0.15067581788E+03  0.00000000000E+00 0. -1.
         21   -1    0    0  502  503 -0.00000000000E+00 -0.00000000000E+00 -0.25911004169E+02  0.25911004169E+02  0.00000000000E+00 0. -1.
         25    2    1    2    0    0  0.35527136788E-14  0.00000000000E+00  0.12476481372E+03  0.17658682205E+03  0.12496658346E+03 0.  0.
    9000006    2    3    3    0    0 -0.83526131207E+01  0.13758744978E+02  0.71870218402E+02  0.94996889386E+02  0.60000095755E+02 0.  0.
    9000007    2    3    3    0    0  0.83526131207E+01 -0.13758744978E+02  0.52894595314E+02  0.81589932666E+02  0.60000080748E+02 0.  0.
          5    1    4    4  501    0  0.25605967072E+02  0.39821648744E+01  0.27455450168E+02  0.38044906764E+02  0.47000000000E+01 0.  1.
         -5    1    4    4    0  501 -0.33958580193E+02  0.97765801033E+01  0.44414768234E+02  0.56951982622E+02  0.47000000000E+01 0.  1.
         12    1    5    5    0    0 -0.13688472276E+02 -0.28551099715E+02  0.14286241374E+02  0.34736670261E+02  0.00000000000E+00 0.  1.
        -12    1    5    5    0    0  0.22041085397E+02  0.14792354738E+02  0.38608353939E+02  0.46853262406E+02  0.00000000000E+00 0.  1.
<mgrwt>
<rscale>  0 0.12496658E+03</rscale>
<asrwt>0</asrwt>
<pdfrwt beam="1">  1       21 0.23180895E-01 0.12496658E+03</pdfrwt>
<pdfrwt beam="2">  1       21 0.39863084E-02 0.12496658E+03</pdfrwt>
<totfact> 0.67602557E+06</totfact>
</mgrwt>
</event>
<event>
 9    1  0.4541185E-002  0.1249918E+03  0.7818608E-02  0.1235082E+00
         21   -1    0    0  503  502  0.00000000000E+00  0.00000000000E+00  0.52093350203E+03  0.52093350203E+03  0.00000000000E+00 0.  1.
         21   -1    0    0  502  503 -0.00000000000E+00 -0.00000000000E+00 -0.74975740365E+01  0.74975740365E+01  0.00000000000E+00 0.  1.
         25    2    1    2    0    0  0.17763568394E-14  0.00000000000E+00  0.51343592799E+03  0.52843107606E+03  0.12499179972E+03 0.  0.
    9000006    2    3    3    0    0  0.15524783064E+02 -0.78395404674E+01  0.26437488574E+03  0.27165512956E+03  0.59999599335E+02 0.  0.
    9000007    2    3    3    0    0 -0.15524783064E+02  0.78395404674E+01  0.24906104225E+03  0.25677594651E+03  0.60000055448E+02 0.  0.
          5    1    4    4  501    0 -0.32356821855E+01 -0.25423035883E+02  0.20667360959E+03  0.20830955641E+03  0.47000000000E+01 0. -1.
         -5    1    4    4    0  501  0.18760465249E+02  0.17583495415E+02  0.57701276156E+02  0.63345573148E+02  0.47000000000E+01 0. -1.
         12    1    5    5    0    0 -0.48299608440E+01 -0.16767032983E+02  0.21736746624E+02  0.27873788235E+02  0.00000000000E+00 0.  1.
        -12    1    5    5    0    0 -0.10694822220E+02  0.24606573450E+02  0.22732429563E+03  0.22890215827E+03  0.00000000000E+00 0.  1.
<mgrwt>
<rscale>  0 0.12499180E+03</rscale>
<asrwt>0</asrwt>
<pdfrwt beam="1">  1       21 0.80143587E-01 0.12499180E+03</pdfrwt>
<pdfrwt beam="2">  1       21 0.11534733E-02 0.12499180E+03</pdfrwt>
<totfact> 0.40551286E+06</totfact>
</mgrwt>
</event>
<event>
 9    1  0.4541185E-002  0.1249995E+03  0.7818608E-02  0.1235070E+00
         21   -1    0    0  503  502  0.00000000000E+00  0.00000000000E+00  0.44707529628E+02  0.44707529628E+02  0.00000000000E+00 0.  1.
         21   -1    0    0  502  503 -0.00000000000E+00 -0.00000000000E+00 -0.87372753316E+02  0.87372753316E+02  0.00000000000E+00 0.  1.
         25    2    1    2    0    0 -0.17763568394E-14 -0.17763568394E-14 -0.42665223688E+02  0.13208028294E+03  0.12499951932E+03 0.  0.
    9000006    2    3    3    0    0 -0.11939844664E+02  0.11138274335E+02 -0.27976182159E+02  0.68185619681E+02  0.59999924311E+02 0.  0.
    9000007    2    3    3    0    0  0.11939844664E+02 -0.11138274335E+02 -0.14689041529E+02  0.63894663264E+02  0.60001158379E+02 0.  0.
          5    1    4    4  501    0 -0.20271733094E+02 -0.10080826399E+02 -0.36659808933E+02  0.43342794263E+02  0.47000000000E+01 0.  1.
         -5    1    4    4    0  501  0.83318884302E+01  0.21219100734E+02  0.86836267748E+01  0.24842825418E+02  0.47000000000E+01 0.  1.
         12    1    5    5    0    0 -0.14665874956E+02 -0.32110997136E+01 -0.29004289280E+02  0.32659575108E+02  0.00000000000E+00 0. -1.
        -12    1    5    5    0    0  0.26605719620E+02 -0.79271746216E+01  0.14315247751E+02  0.31235088156E+02  0.00000000000E+00 0. -1.
<mgrwt>
<rscale>  0 0.12499952E+03</rscale>
<asrwt>0</asrwt>
<pdfrwt beam="1">  1       21 0.68780816E-02 0.12499952E+03</pdfrwt>
<pdfrwt beam="2">  1       21 0.13441962E-01 0.12499952E+03</pdfrwt>
<totfact> 0.73086358E+06</totfact>
</mgrwt>
</event>
<event>
 9    1  0.4541185E-002  0.1249992E+03  0.7818608E-02  0.1235071E+00
         21   -1    0    0  503  502  0.00000000000E+00  0.00000000000E+00  0.81315869572E+02  0.81315869572E+02  0.00000000000E+00 0.  1.
         21   -1    0    0  502  503 -0.00000000000E+00 -0.00000000000E+00 -0.48037360008E+02  0.48037360008E+02  0.00000000000E+00 0.  1.
         25    2    1    2    0    0  0.00000000000E+00  0.35527136788E-14  0.33278509565E+02  0.12935322958E+03  0.12499919521E+03 0.  0.
    9000006    2    3    3    0    0 -0.49882866650E+01 -0.13461110131E+02  0.62800375732E+01  0.62012482068E+02  0.60000204754E+02 0.  0.
    9000007    2    3    3    0    0  0.49882866650E+01  0.13461110131E+02  0.26998471992E+02  0.67340747512E+02  0.59998119102E+02 0.  0.
          5    1    4    4  501    0 -0.24887095493E+02  0.10766491624E+01 -0.14704059277E+02  0.29305734161E+02  0.47000000000E+01 0.  1.
         -5    1    4    4    0  501  0.19898808828E+02 -0.14537759294E+02  0.20984096850E+02  0.32706747907E+02  0.47000000000E+01 0.  1.
         12    1    5    5    0    0  0.10705179371E+02 -0.22058196997E+02  0.45562231902E+01  0.24938405921E+02  0.00000000000E+00 0.  1.
        -12    1    5    5    0    0 -0.57168927057E+01  0.35519307129E+02  0.22442248801E+02  0.42402341591E+02  0.00000000000E+00 0.  1.
<mgrwt>
<rscale>  0 0.12499920E+03</rscale>
<asrwt>0</asrwt>
<pdfrwt beam="1">  1       21 0.12510134E-01 0.12499920E+03</pdfrwt>
<pdfrwt beam="2">  1       21 0.73903631E-02 0.12499920E+03</pdfrwt>
<totfact> 0.73452994E+06</totfact>
</mgrwt>
</event>
<event>
 9    1  0.4541185E-002  0.1249974E+03  0.7818608E-02  0.1235073E+00
         21   -1    0    0  503  502  0.00000000000E+00  0.00000000000E+00  0.35085858501E+02  0.35085858501E+02  0.00000000000E+00 0. -1.
         21   -1    0    0  502  503 -0.00000000000E+00 -0.00000000000E+00 -0.11132938966E+03  0.11132938966E+03  0.00000000000E+00 0. -1.
         25    2    1    2    0    0 -0.35527136788E-14 -0.17763568394E-14 -0.76243531161E+02  0.14641524816E+03  0.12499739538E+03 0.  0.
    9000006    2    3    3    0    0  0.12576501447E+02  0.68681621389E+01 -0.49878851951E+02  0.79330230746E+02  0.60000379986E+02 0.  0.
    9000007    2    3    3    0    0 -0.12576501447E+02 -0.68681621389E+01 -0.26364679210E+02  0.67085017416E+02  0.59999693434E+02 0.  0.
          5    1    4    4  501    0 -0.11461743294E+01  0.16066765534E+02  0.82636263769E+01  0.18703801517E+02  0.47000000000E+01 0. -1.
         -5    1    4    4    0  501  0.13722675777E+02 -0.91986033947E+01 -0.58142478328E+02  0.60626429228E+02  0.47000000000E+01 0. -1.
         12    1    5    5    0    0 -0.16456267359E+02  0.24544971383E+02 -0.16929249423E+02  0.34056773799E+02  0.00000000000E+00 0. -1.
        -12    1    5    5    0    0  0.38797659117E+01 -0.31413133522E+02 -0.94354297869E+01  0.33028243617E+02  0.00000000000E+00 0. -1.
<mgrwt>
<rscale>  0 0.12499740E+03</rscale>
<asrwt>0</asrwt>
<pdfrwt beam="1">  1       21 0.53978244E-02 0.12499740E+03</pdfrwt>
<pdfrwt beam="2">  1       21 0.17127598E-01 0.12499740E+03</pdfrwt>
<totfact> 0.71217194E+06</totfact>
</mgrwt>
</event>
<event>
 9    1  0.4541185E-002  0.1249937E+03  0.7818608E-02  0.1235079E+00
         21   -1    0    0  503  502  0.00000000000E+00  0.00000000000E+00  0.18066307720E+02  0.18066307720E+02  0.00000000000E+00 0. -1.
         21   -1    0    0  502  503 -0.00000000000E+00 -0.00000000000E+00 -0.21619543432E+03  0.21619543432E+03  0.00000000000E+00 0. -1.
         25    2    1    2    0    0  0.17763568394E-14  0.00000000000E+00 -0.19812912660E+03  0.23426174204E+03  0.12499365174E+03 0.  0.
    9000006    2    3    3    0    0 -0.12981782136E+02  0.92938257125E+01 -0.11244345163E+03  0.12844642097E+03  0.60000428168E+02 0.  0.
    9000007    2    3    3    0    0  0.12981782136E+02 -0.92938257125E+01 -0.85685674963E+02  0.10581532107E+03  0.59999545127E+02 0.  0.
          5    1    4    4  501    0  0.40702827206E+01  0.12753420257E+02  0.37913748334E+00  0.14193332058E+02  0.47000000000E+01 0. -1.
         -5    1    4    4    0  501 -0.17052064856E+02 -0.34595945448E+01 -0.11282258912E+03  0.11425308891E+03  0.47000000000E+01 0. -1.
         12    1    5    5    0    0  0.40416937201E+01  0.15376825864E+02  0.31317456134E+00  0.15902205510E+02  0.00000000000E+00 0.  1.
        -12    1    5    5    0    0  0.89400884154E+01 -0.24670651577E+02 -0.85998849525E+02  0.89913115560E+02  0.00000000000E+00 0.  1.
<mgrwt>
<rscale>  0 0.12499365E+03</rscale>
<asrwt>0</asrwt>
<pdfrwt beam="1">  1       21 0.27794321E-02 0.12499365E+03</pdfrwt>
<pdfrwt beam="2">  1       21 0.33260834E-01 0.12499365E+03</pdfrwt>
<totfact> 0.61402239E+06</totfact>
</mgrwt>
</event>
<event>
 9    1  0.4541185E-002  0.1249992E+03  0.7818608E-02  0.1235071E+00
         21   -1    0    0  503  502  0.00000000000E+00  0.00000000000E+00  0.97189000423E+02  0.97189000423E+02  0.00000000000E+00 0. -1.
         21   -1    0    0  502  503 -0.00000000000E+00 -0.00000000000E+00 -0.40191763734E+02  0.40191763734E+02  0.00000000000E+00 0. -1.
         25    2    1    2    0    0  0.00000000000E+00 -0.44408920985E-15  0.56997236689E+02  0.13738076416E+03  0.12499915748E+03 0.  0.
    9000006    2    3    3    0    0  0.37925506120E+01 -0.12466835863E+01  0.47219691977E+02  0.76457531165E+02  0.60000975836E+02 0.  0.
    9000007    2    3    3    0    0 -0.37925506120E+01  0.12466835863E+01  0.97775447119E+01  0.60923232992E+02  0.60000852306E+02 0.  0.
          5    1    4    4  501    0 -0.25954537054E+02  0.45816979717E+01  0.33422108385E+02  0.42822392260E+02  0.47000000000E+01 0. -1.
         -5    1    4    4    0  501  0.29747087666E+02 -0.58283815580E+01  0.13797583593E+02  0.33635138905E+02  0.47000000000E+01 0. -1.
         12    1    5    5    0    0  0.10045932062E+02  0.31067064366E+01 -0.23003168561E+02  0.25292649915E+02  0.00000000000E+00 0.  1.
        -12    1    5    5    0    0 -0.13838482674E+02 -0.18600228503E+01  0.32780713273E+02  0.35630583077E+02  0.00000000000E+00 0.  1.
<mgrwt>
<rscale>  0 0.12499916E+03</rscale>
<asrwt>0</asrwt>
<pdfrwt beam="1">  1       21 0.14952154E-01 0.12499916E+03</pdfrwt>
<pdfrwt beam="2">  1       21 0.61833483E-02 0.12499916E+03</pdfrwt>
<totfact> 0.72384306E+06</totfact>
</mgrwt>
</event>
<event>
 9    1  0.4541185E-002  0.1250025E+03  0.7818608E-02  0.1235065E+00
         21   -1    0    0  503  502  0.00000000000E+00  0.00000000000E+00  0.10700388419E+04  0.10700388419E+04  0.00000000000E+00 0. -1.
         21   -1    0    0  502  503 -0.00000000000E+00 -0.00000000000E+00 -0.36507119951E+01  0.36507119951E+01  0.00000000000E+00 0. -1.
         25    2    1    2    0    0  0.35527136788E-14  0.17763568394E-14  0.10663881299E+04  0.10736895539E+04  0.12500245814E+03 0.  0.
    9000006    2    3    3    0    0 -0.15947977453E+02 -0.57021138233E+01  0.49518761788E+03  0.49909688080E+03  0.60000561971E+02 0.  0.
    9000007    2    3    3    0    0  0.15947977453E+02  0.57021138233E+01  0.57120051200E+03  0.57459267307E+03  0.59998857894E+02 0.  0.
          5    1    4    4  501    0 -0.28644065944E+02 -0.40975980874E+00  0.11419764460E+03  0.11782971803E+03  0.47000000000E+01 0.  1.
         -5    1    4    4    0  501  0.12696088491E+02 -0.52923540146E+01  0.38098997327E+03  0.38126716277E+03  0.47000000000E+01 0.  1.
         12    1    5    5    0    0  0.25451327990E+02  0.18318289639E+02  0.52151625197E+03  0.52245816187E+03  0.00000000000E+00 0.  1.
        -12    1    5    5    0    0 -0.95033505368E+01 -0.12616175816E+02  0.49684260032E+02  0.52134511205E+02  0.00000000000E+00 0.  1.
<mgrwt>
<rscale>  0 0.12500246E+03</rscale>
<asrwt>0</asrwt>
<pdfrwt beam="1">  1       21 0.16462111E+00 0.12500246E+03</pdfrwt>
<pdfrwt beam="2">  1       21 0.56164885E-03 0.12500246E+03</pdfrwt>
<totfact> 0.21844947E+06</totfact>
</mgrwt>
</event>
<event>
 9    1  0.4541185E-002  0.1249992E+03  0.7818608E-02  0.1235071E+00
         21   -1    0    0  503  502  0.00000000000E+00  0.00000000000E+00  0.23005956184E+04  0.23005956184E+04  0.00000000000E+00 0.  1.
         21   -1    0    0  502  503 -0.00000000000E+00 -0.00000000000E+00 -0.16979069590E+01  0.16979069590E+01  0.00000000000E+00 0.  1.
         25    2    1    2    0    0  0.17763568394E-14  0.26645352591E-14  0.22988977114E+04  0.23022935253E+04  0.12499915696E+03 0.  0.
    9000006    2    3    3    0    0 -0.30416263945E+01  0.22336976642E+01  0.14641665813E+04  0.14654003294E+04  0.60000888196E+02 0.  0.
    9000007    2    3    3    0    0  0.30416263945E+01 -0.22336976642E+01  0.83473113009E+03  0.83689319595E+03  0.59999341606E+02 0.  0.
          5    1    4    4  501    0 -0.12913274159E+02  0.20155442583E+02  0.12430604931E+04  0.12432998327E+04  0.47000000000E+01 0.  1.
         -5    1    4    4    0  501  0.98716477645E+01 -0.17921744918E+02  0.22110608823E+03  0.22210049668E+03  0.47000000000E+01 0.  1.
         12    1    5    5    0    0  0.31539574840E+02 -0.22023423108E+01  0.43446577241E+03  0.43561462612E+03  0.00000000000E+00 0. -1.
        -12    1    5    5    0    0 -0.28497948446E+02 -0.31355353446E-01  0.40026535768E+03  0.40127856984E+03  0.00000000000E+00 0. -1.
<mgrwt>
<rscale>  0 0.12499916E+03</rscale>
<asrwt>0</asrwt>
<pdfrwt beam="1">  1       21 0.35393529E+00 0.12499916E+03</pdfrwt>
<pdfrwt beam="2">  1       21 0.26121830E-03 0.12499916E+03</pdfrwt>
<totfact> 0.53582602E+05</totfact>
</mgrwt>
</event>
<event>
 9    1  0.4541185E-002  0.1249978E+03  0.7818608E-02  0.1235073E+00
         21   -1    0    0  503  502  0.00000000000E+00  0.00000000000E+00  0.12484341775E+02  0.12484341775E+02  0.00000000000E+00 0. -1.
         21   -1    0    0  502  503 -0.00000000000E+00 -0.00000000000E+00 -0.31288117052E+03  0.31288117052E+03  0.00000000000E+00 0. -1.
         25    2    1    2    0    0  0.35527136788E-14  0.00000000000E+00 -0.30039682875E+03  0.32536551230E+03  0.12499784746E+03 0.  0.
    9000006    2    3    3    0    0 -0.68360415775E+01  0.13367166826E+02 -0.17356855389E+03  0.18425983926E+03  0.60001940394E+02 0.  0.
    9000007    2    3    3    0    0  0.68360415775E+01 -0.13367166826E+02 -0.12682827486E+03  0.14110567304E+03  0.59999892056E+02 0.  0.
          5    1    4    4  501    0 -0.31323414626E+02 -0.17022125167E+01 -0.10682016322E+03  0.11143020731E+03  0.47000000000E+01 0. -1.
         -5    1    4    4    0  501  0.24487373048E+02  0.15069379342E+02 -0.66748390665E+02  0.72829631943E+02  0.47000000000E+01 0. -1.
         12    1    5    5    0    0 -0.25635178864E+02 -0.48875256415E+00 -0.68191029411E+02  0.72852026510E+02  0.00000000000E+00 0. -1.
        -12    1    5    5    0    0  0.32471220441E+02 -0.12878414261E+02 -0.58637245448E+02  0.68253646530E+02  0.00000000000E+00 0. -1.
<mgrwt>
<rscale>  0 0.12499785E+03</rscale>
<asrwt>0</asrwt>
<pdfrwt beam="1">  1       21 0.19206681E-02 0.12499785E+03</pdfrwt>
<pdfrwt beam="2">  1       21 0.48135562E-01 0.12499785E+03</pdfrwt>
<totfact> 0.53413759E+06</totfact>
</mgrwt>
</event>
<event>
 9    1  0.4541185E-002  0.1249977E+03  0.7818608E-02  0.1235073E+00
         21   -1    0    0  503  502  0.00000000000E+00  0.00000000000E+00  0.23713786220E+01  0.23713786220E+01  0.00000000000E+00 0. -1.
         21   -1    0    0  502  503 -0.00000000000E+00 -0.00000000000E+00 -0.16471884564E+04  0.16471884564E+04  0.00000000000E+00 0. -1.
         25    2    1    2    0    0  0.35527136788E-14  0.35527136788E-14 -0.16448170778E+04  0.16495598350E+04  0.12499771985E+03 0.  0.
    9000006    2    3    3    0    0  0.28506990961E+01  0.15157484974E+02 -0.71343175184E+03  0.71611649412E+03  0.60000773091E+02 0.  0.
    9000007    2    3    3    0    0 -0.28506990961E+01 -0.15157484974E+02 -0.93138532591E+03  0.93344334089E+03  0.59999745651E+02 0.  0.
          5    1    4    4  501    0 -0.72175022547E+01  0.57817038496E+01 -0.19980895196E+02  0.22513254120E+02  0.47000000000E+01 0. -1.
         -5    1    4    4    0  501  0.10068201351E+02  0.93757811243E+01 -0.69345085665E+03  0.69360324000E+03  0.47000000000E+01 0. -1.
         12    1    5    5    0    0 -0.27088767893E+02 -0.15800188113E+02 -0.71806603596E+03  0.71875049863E+03  0.00000000000E+00 0. -1.
        -12    1    5    5    0    0  0.24238068797E+02  0.64270313940E+00 -0.21331928996E+03  0.21469284225E+03  0.00000000000E+00 0. -1.
<mgrwt>
<rscale>  0 0.12499772E+03</rscale>
<asrwt>0</asrwt>
<pdfrwt beam="1">  1       21 0.36482850E-03 0.12499772E+03</pdfrwt>
<pdfrwt beam="2">  1       21 0.25341290E+00 0.12499772E+03</pdfrwt>
<totfact> 0.11914361E+06</totfact>
</mgrwt>
</event>
<event>
 9    1  0.4541185E-002  0.1250072E+03  0.7818608E-02  0.1235058E+00
         21   -1    0    0  503  502  0.00000000000E+00  0.00000000000E+00  0.56392744602E+03  0.56392744602E+03  0.00000000000E+00 0.  1.
         21   -1    0    0  502  503 -0.00000000000E+00 -0.00000000000E+00 -0.69276672532E+01  0.69276672532E+01  0.00000000000E+00 0.  1.
         25    2    1    2    0    0 -0.17763568394E-14 -0.35527136788E-14  0.55699977877E+03  0.57085511327E+03  0.12500722701E+03 0.  0.
    9000006    2    3    3    0    0 -0.14438427499E+02 -0.95007398165E+01  0.26525526219E+03  0.27250370490E+03  0.59993189798E+02 0.  0.
    9000007    2    3    3    0    0  0.14438427499E+02  0.95007398165E+01  0.29174451658E+03  0.29835140837E+03  0.59999730636E+02 0.  0.
          5    1    4    4  501    0 -0.12413143557E+02 -0.28999204777E+02  0.79511010975E+02  0.85668727531E+02  0.47000000000E+01 0. -1.
         -5    1    4    4    0  501 -0.20252839430E+01  0.19498464961E+02  0.18574425121E+03  0.18683497737E+03  0.47000000000E+01 0. -1.
         12    1    5    5    0    0 -0.60273930746E+01  0.20608424610E+02  0.38863455213E+02  0.44400504313E+02  0.00000000000E+00 0. -1.
        -12    1    5    5    0    0  0.20465820574E+02 -0.11107684794E+02  0.25288106137E+03  0.25395090406E+03  0.00000000000E+00 0. -1.
<mgrwt>
<rscale>  0 0.12500723E+03</rscale>
<asrwt>0</asrwt>
<pdfrwt beam="1">  1       21 0.86758033E-01 0.12500723E+03</pdfrwt>
<pdfrwt beam="2">  1       21 0.10657954E-02 0.12500723E+03</pdfrwt>
<totfact> 0.38437844E+06</totfact>
</mgrwt>
</event>
<event>
 9    1  0.4541185E-002  0.1249993E+03  0.7818608E-02  0.1235070E+00
         21   -1    0    0  503  502  0.00000000000E+00  0.00000000000E+00  0.49615590209E+01  0.49615590209E+01  0.00000000000E+00 0.  1.
         21   -1    0    0  502  503 -0.00000000000E+00 -0.00000000000E+00 -0.78729380564E+03  0.78729380564E+03  0.00000000000E+00 0.  1.
         25    2    1    2    0    0 -0.17763568394E-14  0.88817841970E-15 -0.78233224661E+03  0.79225536466E+03  0.12499927493E+03 0.  0.
    9000006    2    3    3    0    0 -0.14332461145E+02  0.35389173100E+01 -0.33161368902E+03  0.33732122294E+03  0.60000211040E+02 0.  0.
    9000007    2    3    3    0    0  0.14332461145E+02 -0.35389173100E+01 -0.45071855760E+03  0.45493414172E+03  0.59999264639E+02 0.  0.
          5    1    4    4  501    0  0.65021408365E+01 -0.77239699210E+01 -0.28123063659E+03  0.28145105881E+03  0.47000000000E+01 0.  1.
         -5    1    4    4    0  501 -0.20834601981E+02  0.11262887231E+02 -0.50383052427E+02  0.55870164134E+02  0.47000000000E+01 0.  1.
         12    1    5    5    0    0  0.96482376011E+01  0.21566021949E+02 -0.82094734661E+02  0.85426736158E+02  0.00000000000E+00 0.  1.
        -12    1    5    5    0    0  0.46842235439E+01 -0.25104939259E+02 -0.36862382294E+03  0.36950740556E+03  0.00000000000E+00 0.  1.
<mgrwt>
<rscale>  0 0.12499927E+03</rscale>
<asrwt>0</asrwt>
<pdfrwt beam="1">  1       21 0.76331638E-03 0.12499927E+03</pdfrwt>
<pdfrwt beam="2">  1       21 0.12112219E+00 0.12499927E+03</pdfrwt>
<totfact> 0.29621547E+06</totfact>
</mgrwt>
</event>
<event>
 9    1  0.4541185E-002  0.1249983E+03  0.7818608E-02  0.1235072E+00
         21   -1    0    0  503  502  0.00000000000E+00  0.00000000000E+00  0.43307528373E+03  0.43307528373E+03  0.00000000000E+00 0. -1.
         21   -1    0    0  502  503 -0.00000000000E+00 -0.00000000000E+00 -0.90195497441E+01  0.90195497441E+01  0.00000000000E+00 0. -1.
         25    2    1    2    0    0  0.00000000000E+00  0.17763568394E-14  0.42405573398E+03  0.44209483347E+03  0.12499830502E+03 0.  0.
    9000006    2    3    3    0    0 -0.85319121040E+01  0.13805294102E+02  0.23523077803E+03  0.24330367824E+03  0.59998176983E+02 0.  0.
    9000007    2    3    3    0    0  0.85319121040E+01 -0.13805294102E+02  0.18882495595E+03  0.19879115523E+03  0.59997331104E+02 0.  0.
          5    1    4    4  501    0  0.81598157382E+01 -0.16570114202E+02  0.33319226859E+02  0.38385051205E+02  0.47000000000E+01 0.  1.
         -5    1    4    4    0  501 -0.16691727842E+02  0.30375408304E+02  0.20191155117E+03  0.20491862703E+03  0.47000000000E+01 0.  1.
         12    1    5    5    0    0  0.19944084114E+02  0.15682212142E+02  0.12517472751E+03  0.12772004805E+03  0.00000000000E+00 0.  1.
        -12    1    5    5    0    0 -0.11412172010E+02 -0.29487506244E+02  0.63650228444E+02  0.71071107177E+02  0.00000000000E+00 0.  1.
<mgrwt>
<rscale>  0 0.12499831E+03</rscale>
<asrwt>0</asrwt>
<pdfrwt beam="1">  1       21 0.66626950E-01 0.12499831E+03</pdfrwt>
<pdfrwt beam="2">  1       21 0.13876234E-02 0.12499831E+03</pdfrwt>
<totfact> 0.45370992E+06</totfact>
</mgrwt>
</event>
<event>
 9    1  0.4541185E-002  0.1249997E+03  0.7818608E-02  0.1235070E+00
         21   -1    0    0  503  502  0.00000000000E+00  0.00000000000E+00  0.22253209062E+02  0.22253209062E+02  0.00000000000E+00 0. -1.
         21   -1    0    0  502  503 -0.00000000000E+00 -0.00000000000E+00 -0.17553560460E+03  0.17553560460E+03  0.00000000000E+00 0. -1.
         25    2    1    2    0    0  0.44408920985E-15  0.35527136788E-14 -0.15328239554E+03  0.19778881366E+03  0.12499968811E+03 0.  0.
    9000006    2    3    3    0    0 -0.32264379274E+01  0.16217313071E+02 -0.67677582927E+02  0.91951396989E+02  0.60011607481E+02 0.  0.
    9000007    2    3    3    0    0  0.32264379274E+01 -0.16217313071E+02 -0.85604812612E+02  0.10583741667E+03  0.59999697340E+02 0.  0.
          5    1    4    4  501    0 -0.26036254201E+02  0.15455925881E+02 -0.14512009993E+02  0.33903696136E+02  0.47000000000E+01 0. -1.
         -5    1    4    4    0  501  0.22809816274E+02  0.76138718991E+00 -0.53165572934E+02  0.58047700853E+02  0.47000000000E+01 0. -1.
         12    1    5    5    0    0 -0.23318242270E+01  0.81045101466E+01 -0.79771046034E+02  0.80215586230E+02  0.00000000000E+00 0.  1.
        -12    1    5    5    0    0  0.55582621543E+01 -0.24321823217E+02 -0.58337665785E+01  0.25621830444E+02  0.00000000000E+00 0.  1.
<mgrwt>
<rscale>  0 0.12499969E+03</rscale>
<asrwt>0</asrwt>
<pdfrwt beam="1">  1       21 0.34235707E-02 0.12499969E+03</pdfrwt>
<pdfrwt beam="2">  1       21 0.27005477E-01 0.12499969E+03</pdfrwt>
<totfact> 0.65167595E+06</totfact>
</mgrwt>
</event>
<event>
 9    1  0.4541185E-002  0.1250011E+03  0.7818608E-02  0.1235068E+00
         21   -1    0    0  503  502  0.00000000000E+00  0.00000000000E+00  0.15578901759E+03  0.15578901759E+03  0.00000000000E+00 0. -1.
         21   -1    0    0  502  503 -0.00000000000E+00 -0.00000000000E+00 -0.25074405726E+02  0.25074405726E+02  0.00000000000E+00 0. -1.
         25    2    1    2    0    0  0.12212453271E-14 -0.17763568394E-14  0.13071461186E+03  0.18086342332E+03  0.12500107255E+03 0.  0.
    9000006    2    3    3    0    0  0.62895443220E+00 -0.80338160396E+01  0.87835750932E+02  0.10667759214E+03  0.60000431163E+02 0.  0.
    9000007    2    3    3    0    0 -0.62895443220E+00  0.80338160396E+01  0.42878860933E+02  0.74185831174E+02  0.60000025402E+02 0.  0.
          5    1    4    4  501    0 -0.17321016075E+02  0.10850895166E+02  0.77990363014E+01  0.22375756769E+02  0.47000000000E+01 0.  1.
         -5    1    4    4    0  501  0.17949970507E+02 -0.18884711205E+02  0.80036714630E+02  0.84301835373E+02  0.47000000000E+01 0.  1.
         12    1    5    5    0    0  0.16410812692E+00 -0.24005203876E+02  0.49163163947E+01  0.24504018272E+02  0.00000000000E+00 0. -1.
        -12    1    5    5    0    0 -0.79306255912E+00  0.32039019915E+02  0.37962544538E+02  0.49681812901E+02  0.00000000000E+00 0. -1.
<mgrwt>
<rscale>  0 0.12500107E+03</rscale>
<asrwt>0</asrwt>
<pdfrwt beam="1">  1       21 0.23967541E-01 0.12500107E+03</pdfrwt>
<pdfrwt beam="2">  1       21 0.38576010E-02 0.12500107E+03</pdfrwt>
<totfact> 0.67050802E+06</totfact>
</mgrwt>
</event>
<event>
 9    1  0.4541185E-002  0.1250003E+03  0.7818608E-02  0.1235069E+00
         21   -1    0    0  503  502  0.00000000000E+00  0.00000000000E+00  0.39352940660E+02  0.39352940660E+02  0.00000000000E+00 0. -1.
         21   -1    0    0  502  503 -0.00000000000E+00 -0.00000000000E+00 -0.99262466872E+02  0.99262466872E+02  0.00000000000E+00 0. -1.
         25    2    1    2    0    0  0.00000000000E+00  0.00000000000E+00 -0.59909526212E+02  0.13861540753E+03  0.12500031950E+03 0.  0.
    9000006    2    3    3    0    0 -0.70416677293E+01  0.14854088023E+02 -0.36615089538E+02  0.72184620166E+02  0.59997713217E+02 0.  0.
    9000007    2    3    3    0    0  0.70416677293E+01 -0.14854088023E+02 -0.23294436674E+02  0.66430787366E+02  0.60001580935E+02 0.  0.
          5    1    4    4  501    0  0.26075106748E+02  0.50005359639E+01 -0.12064128893E+02  0.29538953228E+02  0.47000000000E+01 0. -1.
         -5    1    4    4    0  501 -0.33116774478E+02  0.98535520595E+01 -0.24550960645E+02  0.42645666938E+02  0.47000000000E+01 0. -1.
         12    1    5    5    0    0 -0.87858759989E+01  0.20972889877E+02 -0.54105687177E+01  0.23373659977E+02  0.00000000000E+00 0.  1.
        -12    1    5    5    0    0  0.15827543728E+02 -0.35826977900E+02 -0.17883867957E+02  0.43057127390E+02  0.00000000000E+00 0.  1.
<mgrwt>
<rscale>  0 0.12500032E+03</rscale>
<asrwt>0</asrwt>
<pdfrwt beam="1">  1       21 0.60542986E-02 0.12500032E+03</pdfrwt>
<pdfrwt beam="2">  1       21 0.15271149E-01 0.12500032E+03</pdfrwt>
<totfact> 0.72219995E+06</totfact>
</mgrwt>
</event>
<event>
 9    1  0.4541185E-002  0.1249988E+03  0.7818608E-02  0.1235071E+00
         21   -1    0    0  503  502  0.00000000000E+00  0.00000000000E+00  0.95052197859E+02  0.95052197859E+02  0.00000000000E+00 0. -1.
         21   -1    0    0  502  503 -0.00000000000E+00 -0.00000000000E+00 -0.41095059800E+02  0.41095059800E+02  0.00000000000E+00 0. -1.
         25    2    1    2    0    0  0.71054273576E-14 -0.44408920985E-15  0.53957138059E+02  0.13614725766E+03  0.12499881208E+03 0.  0.
    9000006    2    3    3    0    0 -0.17294835058E+02 -0.23525799905E+01  0.28320905522E+02  0.68605637259E+02  0.60000115181E+02 0.  0.
    9000007    2    3    3    0    0  0.17294835058E+02  0.23525799905E+01  0.25636232538E+02  0.67541620400E+02  0.60000067627E+02 0.  0.
          5    1    4    4  501    0 -0.28616980833E+02 -0.26300060054E+01  0.41440196038E+02  0.50648083589E+02  0.47000000000E+01 0. -1.
         -5    1    4    4    0  501  0.11322145774E+02  0.27742601491E+00 -0.13119290517E+02  0.17957553669E+02  0.47000000000E+01 0. -1.
         12    1    5    5    0    0 -0.14311289018E+02  0.16266097897E+02  0.24892503839E+02  0.33000540624E+02  0.00000000000E+00 0.  1.
        -12    1    5    5    0    0  0.31606124077E+02 -0.13913517906E+02  0.74372869925E+00  0.34541079776E+02  0.00000000000E+00 0.  1.
<mgrwt>
<rscale>  0 0.12499881E+03</rscale>
<asrwt>0</asrwt>
<pdfrwt beam="1">  1       21 0.14623415E-01 0.12499881E+03</pdfrwt>
<pdfrwt beam="2">  1       21 0.63223169E-02 0.12499881E+03</pdfrwt>
<totfact> 0.72547120E+06</totfact>
</mgrwt>
</event>
<event>
 9    1  0.4541185E-002  0.1249919E+03  0.7818608E-02  0.1235082E+00
         21   -1    0    0  503  502  0.00000000000E+00  0.00000000000E+00  0.97325857870E+02  0.97325857870E+02  0.00000000000E+00 0.  1.
         21   -1    0    0  502  503 -0.00000000000E+00 -0.00000000000E+00 -0.40130614389E+02  0.40130614389E+02  0.00000000000E+00 0.  1.
         25    2    1    2    0    0  0.17763568394E-14 -0.17763568394E-14  0.57195243481E+02  0.13745647226E+03  0.12499194330E+03 0.  0.
    9000006    2    3    3    0    0 -0.44395645199E+01 -0.11062034356E+02  0.42671688031E+02  0.74584656489E+02  0.59999330721E+02 0.  0.
    9000007    2    3    3    0    0  0.44395645199E+01  0.11062034356E+02  0.14523555450E+02  0.62871815771E+02  0.59998776806E+02 0.  0.
          5    1    4    4  501    0 -0.11078942551E+02 -0.34343979339E+02  0.27693544027E+02  0.45730452279E+02  0.47000000000E+01 0. -1.
         -5    1    4    4    0  501  0.66393780306E+01  0.23281944983E+02  0.14978144004E+02  0.28854204210E+02  0.47000000000E+01 0. -1.
         12    1    5    5    0    0  0.30977424361E+02  0.30402249866E+01  0.16214836110E+02  0.35096505497E+02  0.00000000000E+00 0.  1.
        -12    1    5    5    0    0 -0.26537859841E+02  0.80218093696E+01 -0.16912806607E+01  0.27775310274E+02  0.00000000000E+00 0.  1.
<mgrwt>
<rscale>  0 0.12499194E+03</rscale>
<asrwt>0</asrwt>
<pdfrwt beam="1">  1       21 0.14973209E-01 0.12499194E+03</pdfrwt>
<pdfrwt beam="2">  1       21 0.61739407E-02 0.12499194E+03</pdfrwt>
<totfact> 0.72387693E+06</totfact>
</mgrwt>
</event>
<event>
 9    1  0.4541185E-002  0.1250004E+03  0.7818608E-02  0.1235069E+00
         21   -1    0    0  503  502  0.00000000000E+00  0.00000000000E+00  0.16419708133E+03  0.16419708133E+03  0.00000000000E+00 0. -1.
         21   -1    0    0  502  503 -0.00000000000E+00 -0.00000000000E+00 -0.23790147685E+02  0.23790147685E+02  0.00000000000E+00 0. -1.
         25    2    1    2    0    0  0.35527136788E-14  0.17763568394E-14  0.14040693364E+03  0.18798722901E+03  0.12500036503E+03 0.  0.
    9000006    2    3    3    0    0  0.13920331286E+02 -0.26107239590E+00  0.54262868081E+02  0.82087246092E+02  0.60000111140E+02 0.  0.
    9000007    2    3    3    0    0 -0.13920331286E+02  0.26107239590E+00  0.86144065563E+02  0.10589998292E+03  0.60001354726E+02 0.  0.
          5    1    4    4  501    0 -0.16906042278E+02 -0.79330278056E+01  0.26114276358E+00  0.19258904206E+02  0.47000000000E+01 0. -1.
         -5    1    4    4    0  501  0.30826373564E+02  0.76719554097E+01  0.54001725317E+02  0.62828341886E+02  0.47000000000E+01 0. -1.
         12    1    5    5    0    0 -0.20356940176E+02  0.26310516416E+02  0.35924807482E+02  0.48961618437E+02  0.00000000000E+00 0.  1.
        -12    1    5    5    0    0  0.64366088905E+01 -0.26049444020E+02  0.50219258082E+02  0.56938364483E+02  0.00000000000E+00 0.  1.
<mgrwt>
<rscale>  0 0.12500037E+03</rscale>
<asrwt>0</asrwt>
<pdfrwt beam="1">  1       21 0.25261089E-01 0.12500037E+03</pdfrwt>
<pdfrwt beam="2">  1       21 0.36600228E-02 0.12500037E+03</pdfrwt>
<totfact> 0.66246253E+06</totfact>
</mgrwt>
</event>
<event>
 9    1  0.4541185E-002  0.1250008E+03  0.7818608E-02  0.1235068E+00
         21   -1    0    0  503  502  0.00000000000E+00  0.00000000000E+00  0.95616503007E+02  0.95616503007E+02  0.00000000000E+00 0. -1.
         21   -1    0    0  502  503 -0.00000000000E+00 -0.00000000000E+00 -0.40853846085E+02  0.40853846085E+02  0.00000000000E+00 0. -1.
         25    2    1    2    0    0  0.66613381478E-15  0.17763568394E-14  0.54762656922E+02  0.13647034909E+03  0.12500083035E+03 0.  0.
    9000006    2    3    3    0    0  0.14792944218E+01  0.14859695554E+02  0.17419776515E+02  0.64237208555E+02  0.59999762375E+02 0.  0.
    9000007    2    3    3    0    0 -0.14792944218E+01 -0.14859695554E+02  0.37342880407E+02  0.72233140537E+02  0.60001141746E+02 0.  0.
          5    1    4    4  501    0  0.91298157181E+01  0.36485631648E+02  0.14740818790E+02  0.40668619234E+02  0.47000000000E+01 0.  1.
         -5    1    4    4    0  501 -0.76505212963E+01 -0.21625936094E+02  0.26789577247E+01  0.23568589320E+02  0.47000000000E+01 0.  1.
         12    1    5    5    0    0 -0.21685754835E+01 -0.82786295424E+01 -0.16179428830E+02  0.18303342427E+02  0.00000000000E+00 0.  1.
        -12    1    5    5    0    0  0.68928106172E+00 -0.65810660117E+01  0.53522309237E+02  0.53929798111E+02  0.00000000000E+00 0.  1.
<mgrwt>
<rscale>  0 0.12500083E+03</rscale>
<asrwt>0</asrwt>
<pdfrwt beam="1">  1       21 0.14710231E-01 0.12500083E+03</pdfrwt>
<pdfrwt beam="2">  1       21 0.62852071E-02 0.12500083E+03</pdfrwt>
<totfact> 0.72500833E+06</totfact>
</mgrwt>
</event>
<event>
 9    1  0.4541185E-002  0.1250043E+03  0.7818608E-02  0.1235063E+00
         21   -1    0    0  503  502  0.00000000000E+00  0.00000000000E+00  0.26071599507E+02  0.26071599507E+02  0.00000000000E+00 0.  1.
         21   -1    0    0  502  503 -0.00000000000E+00 -0.00000000000E+00 -0.14983808330E+03  0.14983808330E+03  0.00000000000E+00 0.  1.
         25    2    1    2    0    0  0.00000000000E+00  0.00000000000E+00 -0.12376648379E+03  0.17590968280E+03  0.12500429590E+03 0.  0.
    9000006    2    3    3    0    0 -0.14252327515E+02  0.38700004483E+01 -0.75114946156E+02  0.97264387638E+02  0.60000001863E+02 0.  0.
    9000007    2    3    3    0    0  0.14252327515E+02 -0.38700004483E+01 -0.48651537632E+02  0.78645295164E+02  0.60000038287E+02 0.  0.
          5    1    4    4  501    0 -0.75650205301E+01  0.29113657388E+02 -0.58526430333E+02  0.65971718408E+02  0.47000000000E+01 0.  1.
         -5    1    4    4    0  501 -0.66873069847E+01 -0.25243656939E+02 -0.16588515822E+02  0.31292669230E+02  0.47000000000E+01 0.  1.
         12    1    5    5    0    0  0.11459836490E+02  0.18754209401E+02  0.30046496835E+01  0.22182789327E+02  0.00000000000E+00 0. -1.
        -12    1    5    5    0    0  0.27924910251E+01 -0.22624209849E+02 -0.51656187315E+02  0.56462505837E+02  0.00000000000E+00 0. -1.
<mgrwt>
<rscale>  0 0.12500430E+03</rscale>
<asrwt>0</asrwt>
<pdfrwt beam="1">  1       21 0.40110153E-02 0.12500430E+03</pdfrwt>
<pdfrwt beam="2">  1       21 0.23052013E-01 0.12500430E+03</pdfrwt>
<totfact> 0.67616520E+06</totfact>
</mgrwt>
</event>
<event>
 9    1  0.4541185E-002  0.1250002E+03  0.7818608E-02  0.1235069E+00
         21   -1    0    0  503  502  0.00000000000E+00  0.00000000000E+00  0.40357420820E+02  0.40357420820E+02  0.00000000000E+00 0.  1.
         21   -1    0    0  502  503 -0.00000000000E+00 -0.00000000000E+00 -0.96791745661E+02  0.96791745661E+02  0.00000000000E+00 0.  1.
         25    2    1    2    0    0  0.00000000000E+00  0.00000000000E+00 -0.56434324842E+02  0.13714916648E+03  0.12500024338E+03 0.  0.
    9000006    2    3    3    0    0 -0.88638867626E+00  0.13743956802E+02 -0.40061739720E+02  0.73448907873E+02  0.60000975366E+02 0.  0.
    9000007    2    3    3    0    0  0.88638867626E+00 -0.13743956802E+02 -0.16372585121E+02  0.63700258607E+02  0.59999828080E+02 0.  0.
          5    1    4    4  501    0 -0.13452025749E+02 -0.19904076857E+02 -0.22261814861E+02  0.33087878040E+02  0.47000000000E+01 0. -1.
         -5    1    4    4    0  501  0.12565637073E+02  0.33648033659E+02 -0.17799924860E+02  0.40361029833E+02  0.47000000000E+01 0. -1.
         12    1    5    5    0    0 -0.93724431190E+01 -0.18736957548E+01 -0.36755834034E+02  0.37978214299E+02  0.00000000000E+00 0. -1.
        -12    1    5    5    0    0  0.10258831795E+02 -0.11870261047E+02  0.20383248913E+02  0.25722044308E+02  0.00000000000E+00 0. -1.
<mgrwt>
<rscale>  0 0.12500024E+03</rscale>
<asrwt>0</asrwt>
<pdfrwt beam="1">  1       21 0.62088340E-02 0.12500024E+03</pdfrwt>
<pdfrwt beam="2">  1       21 0.14891038E-01 0.12500024E+03</pdfrwt>
<totfact> 0.72412690E+06</totfact>
</mgrwt>
</event>
<event>
 9    1  0.4541185E-002  0.1249985E+03  0.7818608E-02  0.1235072E+00
         21   -1    0    0  503  502  0.00000000000E+00  0.00000000000E+00  0.31944762346E+03  0.31944762346E+03  0.00000000000E+00 0. -1.
         21   -1    0    0  502  503 -0.00000000000E+00 -0.00000000000E+00 -0.12227846659E+02  0.12227846659E+02  0.00000000000E+00 0. -1.
         25    2    1    2    0    0 -0.17763568394E-14 -0.17763568394E-14  0.30721977680E+03  0.33167547012E+03  0.12499850488E+03 0.  0.
    9000006    2    3    3    0    0  0.49896358514E+01  0.15162974476E+02  0.17261461345E+03  0.18344100764E+03  0.59999885390E+02 0.  0.
    9000007    2    3    3    0    0 -0.49896358514E+01 -0.15162974476E+02  0.13460516335E+03  0.14823446248E+03  0.60000780034E+02 0.  0.
          5    1    4    4  501    0  0.17923173947E+02 -0.13790061295E+02  0.11691938759E+03  0.11917902143E+03  0.47000000000E+01 0. -1.
         -5    1    4    4    0  501 -0.12933538096E+02  0.28953035771E+02  0.55695225863E+02  0.64261986212E+02  0.47000000000E+01 0. -1.
         12    1    5    5    0    0  0.55120618344E+01  0.13556801382E+02  0.10380722209E+03  0.10483372095E+03  0.00000000000E+00 0. -1.
        -12    1    5    5    0    0 -0.10501697686E+02 -0.28719775857E+02  0.30797941258E+02  0.43400741529E+02  0.00000000000E+00 0. -1.
<mgrwt>
<rscale>  0 0.12499850E+03</rscale>
<asrwt>0</asrwt>
<pdfrwt beam="1">  1       21 0.49145782E-01 0.12499850E+03</pdfrwt>
<pdfrwt beam="2">  1       21 0.18812074E-02 0.12499850E+03</pdfrwt>
<totfact> 0.52922886E+06</totfact>
</mgrwt>
</event>
<event>
 9    1  0.4541185E-002  0.1249897E+03  0.7818608E-02  0.1235085E+00
         21   -1    0    0  503  502  0.00000000000E+00  0.00000000000E+00  0.61943406415E+03  0.61943406415E+03  0.00000000000E+00 0. -1.
         21   -1    0    0  502  503 -0.00000000000E+00 -0.00000000000E+00 -0.63051195956E+01  0.63051195956E+01  0.00000000000E+00 0. -1.
         25    2    1    2    0    0  0.00000000000E+00  0.17763568394E-14  0.61312894456E+03  0.62573918375E+03  0.12498969327E+03 0.  0.
    9000006    2    3    3    0    0  0.54101604295E+01  0.95302631486E+01  0.23830599919E+03  0.24598724284E+03  0.59998988657E+02 0.  0.
    9000007    2    3    3    0    0 -0.54101604295E+01 -0.95302631486E+01  0.37482294537E+03  0.37975194091E+03  0.59993337100E+02 0.  0.
          5    1    4    4  501    0 -0.21405898178E+02  0.31573614314E+01  0.39997830384E+02  0.45717587901E+02  0.47000000000E+01 0.  1.
         -5    1    4    4    0  501  0.26816058607E+02  0.63729017172E+01  0.19830816880E+03  0.20026965494E+03  0.47000000000E+01 0.  1.
         12    1    5    5    0    0  0.35192587280E+01 -0.23326123838E+02  0.59568849783E+02  0.64069814264E+02  0.00000000000E+00 0. -1.
        -12    1    5    5    0    0 -0.89294191575E+01  0.13795860690E+02  0.31525409559E+03  0.31568212664E+03  0.00000000000E+00 0. -1.
<mgrwt>
<rscale>  0 0.12498969E+03</rscale>
<asrwt>0</asrwt>
<pdfrwt beam="1">  1       21 0.95297500E-01 0.12498969E+03</pdfrwt>
<pdfrwt beam="2">  1       21 0.97001889E-03 0.12498969E+03</pdfrwt>
<totfact> 0.35963100E+06</totfact>
</mgrwt>
</event>
<event>
 9    1  0.4541185E-002  0.1250028E+03  0.7818608E-02  0.1235065E+00
         21   -1    0    0  503  502  0.00000000000E+00  0.00000000000E+00  0.12061992607E+03  0.12061992607E+03  0.00000000000E+00 0. -1.
         21   -1    0    0  502  503 -0.00000000000E+00 -0.00000000000E+00 -0.32386209346E+02  0.32386209346E+02  0.00000000000E+00 0. -1.
         25    2    1    2    0    0 -0.35527136788E-14 -0.88817841970E-15  0.88233716729E+02  0.15300613542E+03  0.12500275480E+03 0.  0.
    9000006    2    3    3    0    0  0.12398041249E+02 -0.47487978025E+01  0.58079155612E+02  0.84554521304E+02  0.60000135407E+02 0.  0.
    9000007    2    3    3    0    0 -0.12398041249E+02  0.47487978025E+01  0.30154561116E+02  0.68451614117E+02  0.60000528428E+02 0.  0.
          5    1    4    4  501    0 -0.24988530505E+00 -0.58283085982E+01  0.67594654776E+02  0.68008521364E+02  0.47000000000E+01 0.  1.
         -5    1    4    4    0  501  0.12647926554E+02  0.10795107957E+01 -0.95154991638E+01  0.16545999940E+02  0.47000000000E+01 0.  1.
         12    1    5    5    0    0  0.17602838299E+02  0.11045421957E+02 -0.54349301129E+01  0.21480217125E+02  0.00000000000E+00 0. -1.
        -12    1    5    5    0    0 -0.30000879548E+02 -0.62966241545E+01  0.35589491229E+02  0.46971396992E+02  0.00000000000E+00 0. -1.
<mgrwt>
<rscale>  0 0.12500275E+03</rscale>
<asrwt>0</asrwt>
<pdfrwt beam="1">  1       21 0.18556912E-01 0.12500275E+03</pdfrwt>
<pdfrwt beam="2">  1       21 0.49824938E-02 0.12500275E+03</pdfrwt>
<totfact> 0.70378653E+06</totfact>
</mgrwt>
</event>
<event>
 9    1  0.4541185E-002  0.1249998E+03  0.7818608E-02  0.1235070E+00
         21   -1    0    0  503  502  0.00000000000E+00  0.00000000000E+00  0.12592533555E+03  0.12592533555E+03  0.00000000000E+00 0. -1.
         21   -1    0    0  502  503 -0.00000000000E+00 -0.00000000000E+00 -0.31020289919E+02  0.31020289919E+02  0.00000000000E+00 0. -1.
         25    2    1    2    0    0  0.17763568394E-14  0.00000000000E+00  0.94905045632E+02  0.15694562547E+03  0.12499984667E+03 0.  0.
    9000006    2    3    3    0    0 -0.75419955672E+01 -0.12672193384E+02  0.59288827409E+02  0.85630247742E+02  0.59999234082E+02 0.  0.
    9000007    2    3    3    0    0  0.75419955672E+01  0.12672193384E+02  0.35616218223E+02  0.71315377728E+02  0.59999182642E+02 0.  0.
          5    1    4    4  501    0  0.25971282811E+02 -0.61930778957E+01  0.29708610172E+02  0.40218817275E+02  0.47000000000E+01 0.  1.
         -5    1    4    4    0  501 -0.33513278378E+02 -0.64791154885E+01  0.29580217237E+02  0.45411430466E+02  0.47000000000E+01 0.  1.
         12    1    5    5    0    0 -0.82025236135E+01  0.26357395262E+02 -0.26512679286E+01  0.27731262147E+02  0.00000000000E+00 0.  1.
        -12    1    5    5    0    0  0.15744519181E+02 -0.13685201878E+02  0.38267486151E+02  0.43584115581E+02  0.00000000000E+00 0.  1.
<mgrwt>
<rscale>  0 0.12499985E+03</rscale>
<asrwt>0</asrwt>
<pdfrwt beam="1">  1       21 0.19373128E-01 0.12499985E+03</pdfrwt>
<pdfrwt beam="2">  1       21 0.47723524E-02 0.12499985E+03</pdfrwt>
<totfact> 0.69894919E+06</totfact>
</mgrwt>
</event>
<event>
 9    1  0.4541185E-002  0.1249996E+03  0.7818608E-02  0.1235070E+00
         21   -1    0    0  503  502  0.00000000000E+00  0.00000000000E+00  0.39196862208E+03  0.39196862208E+03  0.00000000000E+00 0. -1.
         21   -1    0    0  502  503 -0.00000000000E+00 -0.00000000000E+00 -0.99656581418E+01  0.99656581418E+01  0.00000000000E+00 0. -1.
         25    2    1    2    0    0  0.00000000000E+00  0.00000000000E+00  0.38200296394E+03  0.40193428022E+03  0.12499960464E+03 0.  0.
    9000006    2    3    3    0    0 -0.13055604631E+02 -0.62322841293E+01  0.22268796572E+03  0.23108281096E+03  0.60000377235E+02 0.  0.
    9000007    2    3    3    0    0  0.13055604631E+02  0.62322841293E+01  0.15931499822E+03  0.17085146926E+03  0.59997214209E+02 0.  0.
          5    1    4    4  501    0 -0.10386550883E+02 -0.24060748240E+02  0.19982384501E+03  0.20158982881E+03  0.47000000000E+01 0. -1.
         -5    1    4    4    0  501 -0.26690537477E+01  0.17828464111E+02  0.22864120712E+02  0.29492982155E+02  0.47000000000E+01 0. -1.
         12    1    5    5    0    0  0.23502133420E+02  0.28091219350E+02  0.81485052181E+02  0.89338013235E+02  0.00000000000E+00 0.  1.
        -12    1    5    5    0    0 -0.10446528789E+02 -0.21858935221E+02  0.77829946036E+02  0.81513456022E+02  0.00000000000E+00 0.  1.
<mgrwt>
<rscale>  0 0.12499960E+03</rscale>
<asrwt>0</asrwt>
<pdfrwt beam="1">  1       21 0.60302853E-01 0.12499960E+03</pdfrwt>
<pdfrwt beam="2">  1       21 0.15331785E-02 0.12499960E+03</pdfrwt>
<totfact> 0.47913795E+06</totfact>
</mgrwt>
</event>
<event>
 9    1  0.4541185E-002  0.1249994E+03  0.7818608E-02  0.1235070E+00
         21   -1    0    0  503  502  0.00000000000E+00  0.00000000000E+00  0.21289950685E+03  0.21289950685E+03  0.00000000000E+00 0. -1.
         21   -1    0    0  502  503 -0.00000000000E+00 -0.00000000000E+00 -0.18347669789E+02  0.18347669789E+02  0.00000000000E+00 0. -1.
         25    2    1    2    0    0  0.00000000000E+00  0.35527136788E-14  0.19455183706E+03  0.23124717664E+03  0.12499935760E+03 0.  0.
    9000006    2    3    3    0    0  0.58462197992E+01 -0.14625721090E+02  0.11137346712E+03  0.12748413876E+03  0.60000553766E+02 0.  0.
    9000007    2    3    3    0    0 -0.58462197992E+01  0.14625721090E+02  0.83178369943E+02  0.10376303789E+03  0.60000306680E+02 0.  0.
          5    1    4    4  501    0 -0.34912408821E-01 -0.31337594558E+02  0.28536368655E+02  0.42643409662E+02  0.47000000000E+01 0.  1.
         -5    1    4    4    0  501  0.58811322080E+01  0.16711873468E+02  0.82837098466E+02  0.84840729094E+02  0.47000000000E+01 0.  1.
         12    1    5    5    0    0  0.10121345655E+02  0.29200423934E+02  0.19567106531E+02  0.36578382328E+02  0.00000000000E+00 0.  1.
        -12    1    5    5    0    0 -0.15967565454E+02 -0.14574702844E+02  0.63611263413E+02  0.67184655558E+02  0.00000000000E+00 0.  1.
<mgrwt>
<rscale>  0 0.12499936E+03</rscale>
<asrwt>0</asrwt>
<pdfrwt beam="1">  1       21 0.32753769E-01 0.12499936E+03</pdfrwt>
<pdfrwt beam="2">  1       21 0.28227186E-02 0.12499936E+03</pdfrwt>
<totfact> 0.61691083E+06</totfact>
</mgrwt>
</event>
<event>
 9    1  0.4541185E-002  0.1250002E+03  0.7818608E-02  0.1235069E+00
         21   -1    0    0  503  502  0.00000000000E+00  0.00000000000E+00  0.23616098901E+02  0.23616098901E+02  0.00000000000E+00 0. -1.
         21   -1    0    0  502  503 -0.00000000000E+00 -0.00000000000E+00 -0.16540674307E+03  0.16540674307E+03  0.00000000000E+00 0. -1.
         25    2    1    2    0    0 -0.88817841970E-15  0.35527136788E-14 -0.14179064417E+03  0.18902284197E+03  0.12500019205E+03 0.  0.
    9000006    2    3    3    0    0  0.42162052437E+01  0.98137614248E+01 -0.49938664543E+02  0.78792367105E+02  0.60002338269E+02 0.  0.
    9000007    2    3    3    0    0 -0.42162052437E+01 -0.98137614248E+01 -0.91851979629E+02  0.11023047487E+03  0.59999042726E+02 0.  0.
          5    1    4    4  501    0  0.91959530708E+01  0.32864610018E+02 -0.18164043470E+02  0.38944455571E+02  0.47000000000E+01 0.  1.
         -5    1    4    4    0  501 -0.49797478270E+01 -0.23050848593E+02 -0.31774621073E+02  0.39847911534E+02  0.47000000000E+01 0.  1.
         12    1    5    5    0    0  0.27216679564E+02 -0.10616643216E+02 -0.38931924314E+02  0.48673971386E+02  0.00000000000E+00 0. -1.
        -12    1    5    5    0    0 -0.31432884808E+02  0.80288179165E+00 -0.52920055315E+02  0.61556503483E+02  0.00000000000E+00 0. -1.
<mgrwt>
<rscale>  0 0.12500019E+03</rscale>
<asrwt>0</asrwt>
<pdfrwt beam="1">  1       21 0.36332462E-02 0.12500019E+03</pdfrwt>
<pdfrwt beam="2">  1       21 0.25447190E-01 0.12500019E+03</pdfrwt>
<totfact> 0.66130909E+06</totfact>
</mgrwt>
</event>
<event>
 9    1  0.4541185E-002  0.1249715E+03  0.7818608E-02  0.1235114E+00
         21   -1    0    0  503  502  0.00000000000E+00  0.00000000000E+00  0.31576622602E+03  0.31576622602E+03  0.00000000000E+00 0.  1.
         21   -1    0    0  502  503 -0.00000000000E+00 -0.00000000000E+00 -0.12365063845E+02  0.12365063845E+02  0.00000000000E+00 0.  1.
         25    2    1    2    0    0 -0.35527136788E-14 -0.35527136788E-14  0.30340116217E+03  0.32813128986E+03  0.12497150947E+03 0.  0.
    9000006    2    3    3    0    0  0.39954365675E+01  0.15979376276E+02  0.13665593705E+03  0.15015383977E+03  0.60000220723E+02 0.  0.
    9000007    2    3    3    0    0 -0.39954365675E+01 -0.15979376276E+02  0.16674522512E+03  0.17797745009E+03  0.60005821893E+02 0.  0.
          5    1    4    4  501    0 -0.25914302968E+02  0.10038510991E+02  0.41872180437E+02  0.50474669843E+02  0.47000000000E+01 0.  1.
         -5    1    4    4    0  501  0.29909739535E+02  0.59408652849E+01  0.94783756616E+02  0.99679169928E+02  0.47000000000E+01 0.  1.
         12    1    5    5    0    0 -0.21497866336E+00  0.40425429297E+01  0.15376545175E+03  0.15381873267E+03  0.00000000000E+00 0. -1.
        -12    1    5    5    0    0 -0.37804579041E+01 -0.20021919206E+02  0.12979773374E+02  0.24158717422E+02  0.00000000000E+00 0. -1.
<mgrwt>
<rscale>  0 0.12497151E+03</rscale>
<asrwt>0</asrwt>
<pdfrwt beam="1">  1       21 0.48579413E-01 0.12497151E+03</pdfrwt>
<pdfrwt beam="2">  1       21 0.19023178E-02 0.12497151E+03</pdfrwt>
<totfact> 0.53233233E+06</totfact>
</mgrwt>
</event>
<event>
 9    1  0.4541185E-002  0.1249989E+03  0.7818608E-02  0.1235071E+00
         21   -1    0    0  503  502  0.00000000000E+00  0.00000000000E+00  0.72194716024E+01  0.72194716024E+01  0.00000000000E+00 0.  1.
         21   -1    0    0  502  503 -0.00000000000E+00 -0.00000000000E+00 -0.54106159548E+03  0.54106159548E+03  0.00000000000E+00 0.  1.
         25    2    1    2    0    0  0.00000000000E+00 -0.17763568394E-14 -0.53384212388E+03  0.54828106708E+03  0.12499886117E+03 0.  0.
    9000006    2    3    3    0    0  0.14158862207E+02  0.36582556204E+01 -0.30906824047E+03  0.31517783601E+03  0.60000290253E+02 0.  0.
    9000007    2    3    3    0    0 -0.14158862207E+02 -0.36582556204E+01 -0.22477388340E+03  0.23310323107E+03  0.59999678847E+02 0.  0.
          5    1    4    4  501    0 -0.17520136384E+02 -0.15991527186E+02 -0.12007798447E+03  0.12248876061E+03  0.47000000000E+01 0. -1.
         -5    1    4    4    0  501  0.31678998592E+02  0.19649782806E+02 -0.18899025601E+03  0.19268907541E+03  0.47000000000E+01 0. -1.
         12    1    5    5    0    0  0.96998240757E+01 -0.10474199297E+02 -0.18915858484E+03  0.18969650934E+03  0.00000000000E+00 0. -1.
        -12    1    5    5    0    0 -0.23858686283E+02  0.68159436766E+01 -0.35615298563E+02  0.43406721727E+02  0.00000000000E+00 0. -1.
<mgrwt>
<rscale>  0 0.12499886E+03</rscale>
<asrwt>0</asrwt>
<pdfrwt beam="1">  1       21 0.11106879E-02 0.12499886E+03</pdfrwt>
<pdfrwt beam="2">  1       21 0.83240249E-01 0.12499886E+03</pdfrwt>
<totfact> 0.39542262E+06</totfact>
</mgrwt>
</event>
<event>
 9    1  0.4541185E-002  0.1249916E+03  0.7818608E-02  0.1235082E+00
         21   -1    0    0  503  502  0.00000000000E+00  0.00000000000E+00  0.15361024894E+03  0.15361024894E+03  0.00000000000E+00 0.  1.
         21   -1    0    0  502  503 -0.00000000000E+00 -0.00000000000E+00 -0.25426212763E+02  0.25426212763E+02  0.00000000000E+00 0.  1.
         25    2    1    2    0    0  0.17763568394E-14  0.00000000000E+00  0.12818403617E+03  0.17903646170E+03  0.12499162967E+03 0.  0.
    9000006    2    3    3    0    0 -0.58240054661E+01  0.10931181028E+02  0.46432708506E+02  0.76870868075E+02  0.59997701464E+02 0.  0.
    9000007    2    3    3    0    0  0.58240054661E+01 -0.10931181028E+02  0.81751327667E+02  0.10216559363E+03  0.60009325835E+02 0.  0.
          5    1    4    4  501    0 -0.17804253146E+02  0.31798464785E+02  0.27644964286E+02  0.45983343105E+02  0.47000000000E+01 0.  1.
         -5    1    4    4    0  501  0.11980247680E+02 -0.20867283756E+02  0.18787744220E+02  0.30887524969E+02  0.47000000000E+01 0.  1.
         12    1    5    5    0    0  0.31077188584E+02 -0.13441635619E+02  0.33409625156E+02  0.47567554819E+02  0.00000000000E+00 0.  1.
        -12    1    5    5    0    0 -0.25253183118E+02  0.25104545902E+01  0.48341702511E+02  0.54598038806E+02  0.00000000000E+00 0.  1.
<mgrwt>
<rscale>  0 0.12499163E+03</rscale>
<asrwt>0</asrwt>
<pdfrwt beam="1">  1       21 0.23632345E-01 0.12499163E+03</pdfrwt>
<pdfrwt beam="2">  1       21 0.39117251E-02 0.12499163E+03</pdfrwt>
<totfact> 0.67276526E+06</totfact>
</mgrwt>
</event>
<event>
 9    1  0.4541185E-002  0.1249941E+03  0.7818608E-02  0.1235078E+00
         21   -1    0    0  503  502  0.00000000000E+00  0.00000000000E+00  0.81023028757E+02  0.81023028757E+02  0.00000000000E+00 0.  1.
         21   -1    0    0  502  503 -0.00000000000E+00 -0.00000000000E+00 -0.48207068298E+02  0.48207068298E+02  0.00000000000E+00 0.  1.
         25    2    1    2    0    0  0.00000000000E+00  0.00000000000E+00  0.32815960459E+02  0.12923009706E+03  0.12499412276E+03 0.  0.
    9000006    2    3    3    0    0  0.13222803611E+02 -0.57679366135E+01  0.26631980490E+02  0.67211879867E+02  0.60000523184E+02 0.  0.
    9000007    2    3    3    0    0 -0.13222803611E+02  0.57679366135E+01  0.61839799684E+01  0.62018217189E+02  0.59999216886E+02 0.  0.
          5    1    4    4  501    0  0.86432770363E+01 -0.27270661499E+02  0.32921455497E+02  0.43866928871E+02  0.47000000000E+01 0. -1.
         -5    1    4    4    0  501  0.45795265743E+01  0.21502724885E+02 -0.62894750068E+01  0.23344950996E+02  0.47000000000E+01 0. -1.
         12    1    5    5    0    0  0.11717773310E+02  0.26037083818E+02  0.85163989135E+01  0.29795385474E+02  0.00000000000E+00 0.  1.
        -12    1    5    5    0    0 -0.24940576921E+02 -0.20269147205E+02 -0.23324189451E+01  0.32222831714E+02  0.00000000000E+00 0.  1.
<mgrwt>
<rscale>  0 0.12499412E+03</rscale>
<asrwt>0</asrwt>
<pdfrwt beam="1">  1       21 0.12465081E-01 0.12499412E+03</pdfrwt>
<pdfrwt beam="2">  1       21 0.74164720E-02 0.12499412E+03</pdfrwt>
<totfact> 0.73479022E+06</totfact>
</mgrwt>
</event>
<event>
 9    1  0.4541185E-002  0.1249990E+03  0.7818608E-02  0.1235071E+00
         21   -1    0    0  503  502  0.00000000000E+00  0.00000000000E+00  0.21535436742E+03  0.21535436742E+03  0.00000000000E+00 0.  1.
         21   -1    0    0  502  503 -0.00000000000E+00 -0.00000000000E+00 -0.18138407263E+02  0.18138407263E+02  0.00000000000E+00 0.  1.
         25    2    1    2    0    0 -0.35527136788E-14 -0.22204460493E-14  0.19721596016E+03  0.23349277468E+03  0.12499896355E+03 0.  0.
    9000006    2    3    3    0    0 -0.56707292802E+01  0.19038262882E+01  0.67870542111E+02  0.90783117349E+02  0.59994851312E+02 0.  0.
    9000007    2    3    3    0    0  0.56707292802E+01 -0.19038262882E+01  0.12934541805E+03  0.14270965733E+03  0.60000228350E+02 0.  0.
          5    1    4    4  501    0 -0.19251011676E+02  0.21159628243E+02  0.14849228010E+02  0.32571780584E+02  0.47000000000E+01 0.  1.
         -5    1    4    4    0  501  0.13580282396E+02 -0.19255801955E+02  0.53021314101E+02  0.58211336764E+02  0.47000000000E+01 0.  1.
         12    1    5    5    0    0  0.31139505500E+02 -0.61813134068E-01  0.46067351233E+02  0.55604617373E+02  0.00000000000E+00 0.  1.
        -12    1    5    5    0    0 -0.25468776219E+02 -0.18420131541E+01  0.83278066812E+02  0.87105039961E+02  0.00000000000E+00 0.  1.
<mgrwt>
<rscale>  0 0.12499896E+03</rscale>
<asrwt>0</asrwt>
<pdfrwt beam="1">  1       21 0.33131439E-01 0.12499896E+03</pdfrwt>
<pdfrwt beam="2">  1       21 0.27905243E-02 0.12499896E+03</pdfrwt>
<totfact> 0.61469704E+06</totfact>
</mgrwt>
</event>
<event>
 9    1  0.4541185E-002  0.1250039E+03  0.7818608E-02  0.1235063E+00
         21   -1    0    0  503  502  0.00000000000E+00  0.00000000000E+00  0.58682315296E+02  0.58682315296E+02  0.00000000000E+00 0. -1.
         21   -1    0    0  502  503 -0.00000000000E+00 -0.00000000000E+00 -0.66570233697E+02  0.66570233697E+02  0.00000000000E+00 0. -1.
         25    2    1    2    0    0 -0.35527136788E-14  0.00000000000E+00 -0.78879184006E+01  0.12525254899E+03  0.12500392703E+03 0.  0.
    9000006    2    3    3    0    0 -0.16163237678E+01 -0.11450109089E+02 -0.17113151102E+02  0.63455297108E+02  0.59999977415E+02 0.  0.
    9000007    2    3    3    0    0  0.16163237678E+01  0.11450109089E+02  0.92252327014E+01  0.61797251885E+02  0.60000649342E+02 0.  0.
          5    1    4    4  501    0  0.13118800677E+02 -0.21488612008E+02 -0.31116988457E+02  0.40301617187E+02  0.47000000000E+01 0. -1.
         -5    1    4    4    0  501 -0.14735124445E+02  0.10038502919E+02  0.14003837355E+02  0.23153679922E+02  0.47000000000E+01 0. -1.
         12    1    5    5    0    0  0.18605186168E+02  0.29096154081E+02  0.13217750120E+02  0.36979021794E+02  0.00000000000E+00 0.  1.
        -12    1    5    5    0    0 -0.16988862400E+02 -0.17646044991E+02 -0.39925174186E+01  0.24818230090E+02  0.00000000000E+00 0.  1.
<mgrwt>
<rscale>  0 0.12500393E+03</rscale>
<asrwt>0</asrwt>
<pdfrwt beam="1">  1       21 0.90280485E-02 0.12500393E+03</pdfrwt>
<pdfrwt beam="2">  1       21 0.10241574E-01 0.12500393E+03</pdfrwt>
<totfact> 0.74002048E+06</totfact>
</mgrwt>
</event>
<event>
 9    1  0.4541185E-002  0.1250020E+03  0.7818608E-02  0.1235066E+00
         21   -1    0    0  503  502  0.00000000000E+00  0.00000000000E+00  0.13659222556E+02  0.13659222556E+02  0.00000000000E+00 0. -1.
         21   -1    0    0  502  503 -0.00000000000E+00 -0.00000000000E+00 -0.28598803357E+03  0.28598803357E+03  0.00000000000E+00 0. -1.
         25    2    1    2    0    0 -0.35527136788E-14  0.00000000000E+00 -0.27232881101E+03  0.29964725612E+03  0.12500198716E+03 0.  0.
    9000006    2    3    3    0    0 -0.14468068838E+02 -0.93775229246E+01 -0.12894629702E+03  0.14326346823E+03  0.60000090514E+02 0.  0.
    9000007    2    3    3    0    0  0.14468068838E+02  0.93775229246E+01 -0.14338251399E+03  0.15638378789E+03  0.60000673709E+02 0.  0.
          5    1    4    4  501    0 -0.34398110616E+02 -0.48018382475E+01 -0.46734861281E+02  0.58416820553E+02  0.47000000000E+01 0. -1.
         -5    1    4    4    0  501  0.19930041779E+02 -0.45756846771E+01 -0.82211435742E+02  0.84846647679E+02  0.47000000000E+01 0. -1.
         12    1    5    5    0    0  0.12085333512E+02  0.15813654153E+02 -0.90291718988E+01  0.21855271422E+02  0.00000000000E+00 0.  1.
        -12    1    5    5    0    0  0.23827353261E+01 -0.64361312280E+01 -0.13435334209E+03  0.13452851647E+03  0.00000000000E+00 0.  1.
<mgrwt>
<rscale>  0 0.12500199E+03</rscale>
<asrwt>0</asrwt>
<pdfrwt beam="1">  1       21 0.21014189E-02 0.12500199E+03</pdfrwt>
<pdfrwt beam="2">  1       21 0.43998158E-01 0.12500199E+03</pdfrwt>
<totfact> 0.55482731E+06</totfact>
</mgrwt>
</event>
<event>
 9    1  0.4541185E-002  0.1250010E+03  0.7818608E-02  0.1235068E+00
         21   -1    0    0  503  502  0.00000000000E+00  0.00000000000E+00  0.18503014920E+02  0.18503014920E+02  0.00000000000E+00 0.  1.
         21   -1    0    0  502  503 -0.00000000000E+00 -0.00000000000E+00 -0.21111747150E+03  0.21111747150E+03  0.00000000000E+00 0.  1.
         25    2    1    2    0    0  0.35527136788E-14  0.00000000000E+00 -0.19261445658E+03  0.22962048642E+03  0.12500095560E+03 0.  0.
    9000006    2    3    3    0    0  0.15984265459E+02  0.68775805470E+01 -0.92747477864E+02  0.11182506119E+03  0.59999598359E+02 0.  0.
    9000007    2    3    3    0    0 -0.15984265459E+02 -0.68775805470E+01 -0.99866978712E+02  0.11779542523E+03  0.59996257477E+02 0.  0.
          5    1    4    4  501    0 -0.34002182366E+01  0.24359628455E+02 -0.13908454925E+02  0.28644163470E+02  0.47000000000E+01 0.  1.
         -5    1    4    4    0  501  0.19384483695E+02 -0.17482047908E+02 -0.78839022939E+02  0.83180897718E+02  0.47000000000E+01 0.  1.
         12    1    5    5    0    0  0.11388921118E+02  0.20656623061E+02 -0.35367731190E+02  0.42512116038E+02  0.00000000000E+00 0. -1.
        -12    1    5    5    0    0 -0.27373186577E+02 -0.27534203608E+02 -0.64499247523E+02  0.75283309191E+02  0.00000000000E+00 0. -1.
<mgrwt>
<rscale>  0 0.12500096E+03</rscale>
<asrwt>0</asrwt>
<pdfrwt beam="1">  1       21 0.28466178E-02 0.12500096E+03</pdfrwt>
<pdfrwt beam="2">  1       21 0.32479609E-01 0.12500096E+03</pdfrwt>
<totfact> 0.61850277E+06</totfact>
</mgrwt>
</event>
<event>
 9    1  0.4541185E-002  0.1250121E+03  0.7818608E-02  0.1235050E+00
         21   -1    0    0  503  502  0.00000000000E+00  0.00000000000E+00  0.18261365726E+03  0.18261365726E+03  0.00000000000E+00 0.  1.
         21   -1    0    0  502  503 -0.00000000000E+00 -0.00000000000E+00 -0.21394937332E+02  0.21394937332E+02  0.00000000000E+00 0.  1.
         25    2    1    2    0    0 -0.17763568394E-14  0.00000000000E+00  0.16121871993E+03  0.20400859460E+03  0.12501212346E+03 0.  0.
    9000006    2    3    3    0    0 -0.17907217132E+01 -0.38874073111E+01  0.10834654971E+03  0.12392293903E+03  0.59996677936E+02 0.  0.
    9000007    2    3    3    0    0  0.17907217132E+01  0.38874073111E+01  0.52872170225E+02  0.80085655571E+02  0.59999393531E+02 0.  0.
          5    1    4    4  501    0 -0.13314944284E+02 -0.69712632149E+01  0.96310520814E+00  0.15776686082E+02  0.47000000000E+01 0.  1.
         -5    1    4    4    0  501  0.11524222571E+02  0.30838559038E+01  0.10738344450E+03  0.10814625294E+03  0.47000000000E+01 0.  1.
         12    1    5    5    0    0  0.21226567847E+02  0.12370942841E+02  0.53498049142E+02  0.58869760245E+02  0.00000000000E+00 0. -1.
        -12    1    5    5    0    0 -0.19435846134E+02 -0.84835355299E+01 -0.62587891719E+00  0.21215895325E+02  0.00000000000E+00 0. -1.
<mgrwt>
<rscale>  0 0.12501212E+03</rscale>
<asrwt>0</asrwt>
<pdfrwt beam="1">  1       21 0.28094408E-01 0.12501212E+03</pdfrwt>
<pdfrwt beam="2">  1       21 0.32915289E-02 0.12501212E+03</pdfrwt>
<totfact> 0.64475682E+06</totfact>
</mgrwt>
</event>
<event>
 9    1  0.4541185E-002  0.1250012E+03  0.7818608E-02  0.1235067E+00
         21   -1    0    0  503  502  0.00000000000E+00  0.00000000000E+00  0.88334077210E+02  0.88334077210E+02  0.00000000000E+00 0.  1.
         21   -1    0    0  502  503 -0.00000000000E+00 -0.00000000000E+00 -0.44222184271E+02  0.44222184271E+02  0.00000000000E+00 0.  1.
         25    2    1    2    0    0  0.17763568394E-14  0.17763568394E-14  0.44111892939E+02  0.13255626148E+03  0.12500121343E+03 0.  0.
    9000006    2    3    3    0    0  0.88251897319E+01  0.11547882301E+02  0.11712500596E+02  0.62835980426E+02  0.59999501718E+02 0.  0.
    9000007    2    3    3    0    0 -0.88251897319E+01 -0.11547882301E+02  0.32399392344E+02  0.69720281055E+02  0.59999661721E+02 0.  0.
          5    1    4    4  501    0  0.10880098187E+02 -0.22770210364E+02 -0.14818534848E+01  0.25712738211E+02  0.47000000000E+01 0. -1.
         -5    1    4    4    0  501 -0.20549084556E+01  0.34318092665E+02  0.13194354081E+02  0.37123242214E+02  0.47000000000E+01 0. -1.
         12    1    5    5    0    0 -0.14255668107E+02  0.11157042217E+02  0.41017866001E+02  0.44834908224E+02  0.00000000000E+00 0. -1.
        -12    1    5    5    0    0  0.54304783751E+01 -0.22704924518E+02 -0.86184736570E+01  0.24885372831E+02  0.00000000000E+00 0. -1.
<mgrwt>
<rscale>  0 0.12500121E+03</rscale>
<asrwt>0</asrwt>
<pdfrwt beam="1">  1       21 0.13589858E-01 0.12500121E+03</pdfrwt>
<pdfrwt beam="2">  1       21 0.68034130E-02 0.12500121E+03</pdfrwt>
<totfact> 0.73019450E+06</totfact>
</mgrwt>
</event>
<event>
 9    1  0.4541185E-002  0.1249956E+03  0.7818608E-02  0.1235076E+00
         21   -1    0    0  503  502  0.00000000000E+00  0.00000000000E+00  0.43454734736E+02  0.43454734736E+02  0.00000000000E+00 0. -1.
         21   -1    0    0  502  503 -0.00000000000E+00 -0.00000000000E+00 -0.89886117103E+02  0.89886117103E+02  0.00000000000E+00 0. -1.
         25    2    1    2    0    0  0.00000000000E+00  0.00000000000E+00 -0.46431382367E+02  0.13334085184E+03  0.12499563793E+03 0.  0.
    9000006    2    3    3    0    0  0.17266181281E+02  0.27517927089E+01 -0.23702708379E+02  0.66839779792E+02  0.60000369990E+02 0.  0.
    9000007    2    3    3    0    0 -0.17266181281E+02 -0.27517927089E+01 -0.22728673988E+02  0.66501072048E+02  0.60000888186E+02 0.  0.
          5    1    4    4  501    0 -0.12483158078E+02  0.22729051993E+02 -0.10132248226E+02  0.28234579759E+02  0.47000000000E+01 0. -1.
         -5    1    4    4    0  501  0.29749339358E+02 -0.19977259284E+02 -0.13570460154E+02  0.38605200032E+02  0.47000000000E+01 0. -1.
         12    1    5    5    0    0 -0.89444306662E+01  0.27076215965E+02 -0.21133432960E+02  0.35492904919E+02  0.00000000000E+00 0. -1.
        -12    1    5    5    0    0 -0.83217506145E+01 -0.29828008674E+02 -0.15952410278E+01  0.31008167129E+02  0.00000000000E+00 0. -1.
<mgrwt>
<rscale>  0 0.12499564E+03</rscale>
<asrwt>0</asrwt>
<pdfrwt beam="1">  1       21 0.66853437E-02 0.12499564E+03</pdfrwt>
<pdfrwt beam="2">  1       21 0.13828634E-01 0.12499564E+03</pdfrwt>
<totfact> 0.72925031E+06</totfact>
</mgrwt>
</event>
<event>
 9    1  0.4541185E-002  0.1250029E+03  0.7818608E-02  0.1235065E+00
         21   -1    0    0  503  502  0.00000000000E+00  0.00000000000E+00  0.14696746633E+03  0.14696746633E+03  0.00000000000E+00 0. -1.
         21   -1    0    0  502  503 -0.00000000000E+00 -0.00000000000E+00 -0.26580247680E+02  0.26580247680E+02  0.00000000000E+00 0. -1.
         25    2    1    2    0    0  0.00000000000E+00  0.00000000000E+00  0.12038721865E+03  0.17354771401E+03  0.12500290646E+03 0.  0.
    9000006    2    3    3    0    0  0.14482252177E+02 -0.15746647147E+00  0.46577391172E+02  0.77324442394E+02  0.59998796649E+02 0.  0.
    9000007    2    3    3    0    0 -0.14482252177E+02  0.15746647147E+00  0.73809827479E+02  0.96223271617E+02  0.60010556942E+02 0.  0.
          5    1    4    4  501    0  0.30528619426E+02  0.78881440968E+01  0.49158064341E+02  0.58590312434E+02  0.47000000000E+01 0. -1.
         -5    1    4    4    0  501 -0.16046367250E+02 -0.80456105683E+01 -0.25806731695E+01  0.18734129960E+02  0.47000000000E+01 0. -1.
         12    1    5    5    0    0 -0.21785762923E+02 -0.24316233956E+02  0.56872516397E+02  0.65577296539E+02  0.00000000000E+00 0. -1.
        -12    1    5    5    0    0  0.73035107463E+01  0.24473700428E+02  0.16937311082E+02  0.30645975079E+02  0.00000000000E+00 0. -1.
<mgrwt>
<rscale>  0 0.12500291E+03</rscale>
<asrwt>0</asrwt>
<pdfrwt beam="1">  1       21 0.22610379E-01 0.12500291E+03</pdfrwt>
<pdfrwt beam="2">  1       21 0.40892690E-02 0.12500291E+03</pdfrwt>
<totfact> 0.67894535E+06</totfact>
</mgrwt>
</event>
<event>
 9    1  0.4541185E-002  0.1249958E+03  0.7818608E-02  0.1235076E+00
         21   -1    0    0  503  502  0.00000000000E+00  0.00000000000E+00  0.58464529624E+01  0.58464529624E+01  0.00000000000E+00 0.  1.
         21   -1    0    0  502  503 -0.00000000000E+00 -0.00000000000E+00 -0.66809526637E+03  0.66809526637E+03  0.00000000000E+00 0.  1.
         25    2    1    2    0    0  0.17763568394E-14 -0.88817841970E-15 -0.66224881341E+03  0.67394171934E+03  0.12499580072E+03 0.  0.
    9000006    2    3    3    0    0  0.16730806097E+01 -0.52948213635E+01 -0.42057448790E+03  0.42486878049E+03  0.59997886886E+02 0.  0.
    9000007    2    3    3    0    0 -0.16730806097E+01  0.52948213635E+01 -0.24167432551E+03  0.24907293884E+03  0.60000124350E+02 0.  0.
          5    1    4    4  501    0  0.51268446190E+01  0.24306600807E+02 -0.27741404960E+03  0.27856370957E+03  0.47000000000E+01 0. -1.
         -5    1    4    4    0  501 -0.34537640093E+01 -0.29601422170E+02 -0.14316043831E+03  0.14630507092E+03  0.47000000000E+01 0. -1.
         12    1    5    5    0    0 -0.28159468137E+02 -0.26781409906E+01 -0.75754548689E+02  0.80863339852E+02  0.00000000000E+00 0.  1.
        -12    1    5    5    0    0  0.26486387528E+02  0.79729623541E+01 -0.16591977682E+03  0.16820959899E+03  0.00000000000E+00 0.  1.
<mgrwt>
<rscale>  0 0.12499580E+03</rscale>
<asrwt>0</asrwt>
<pdfrwt beam="1">  1       21 0.89945457E-03 0.12499580E+03</pdfrwt>
<pdfrwt beam="2">  1       21 0.10278386E+00 0.12499580E+03</pdfrwt>
<totfact> 0.33942727E+06</totfact>
</mgrwt>
</event>
<event>
 9    1  0.4541185E-002  0.1249995E+03  0.7818608E-02  0.1235070E+00
         21   -1    0    0  503  502  0.00000000000E+00  0.00000000000E+00  0.15670942535E+04  0.15670942535E+04  0.00000000000E+00 0. -1.
         21   -1    0    0  502  503 -0.00000000000E+00 -0.00000000000E+00 -0.24926525171E+01  0.24926525171E+01  0.00000000000E+00 0. -1.
         25    2    1    2    0    0 -0.17763568394E-14 -0.35527136788E-14  0.15646016010E+04  0.15695869060E+04  0.12499954297E+03 0.  0.
    9000006    2    3    3    0    0 -0.66082836361E+01 -0.14573821667E+02  0.87117491924E+03  0.87338525855E+03  0.60000035463E+02 0.  0.
    9000007    2    3    3    0    0  0.66082836361E+01  0.14573821667E+02  0.69342668177E+03  0.69620164749E+03  0.60000877389E+02 0.  0.
          5    1    4    4  501    0  0.86761907493E+01  0.20850879071E+02  0.35561597741E+03  0.35636336629E+03  0.47000000000E+01 0.  1.
         -5    1    4    4    0  501 -0.15284474385E+02 -0.35424700737E+02  0.51555894183E+03  0.51702189226E+03  0.47000000000E+01 0.  1.
         12    1    5    5    0    0  0.25222872641E+02 -0.69965917091E+01  0.17031971647E+03  0.17231932979E+03  0.00000000000E+00 0.  1.
        -12    1    5    5    0    0 -0.18614589005E+02  0.21570413376E+02  0.52310696530E+03  0.52388231771E+03  0.00000000000E+00 0.  1.
<mgrwt>
<rscale>  0 0.12499954E+03</rscale>
<asrwt>0</asrwt>
<pdfrwt beam="1">  1       21 0.24109064E+00 0.12499954E+03</pdfrwt>
<pdfrwt beam="2">  1       21 0.38348625E-03 0.12499954E+03</pdfrwt>
<totfact> 0.12992233E+06</totfact>
</mgrwt>
</event>
<event>
 9    1  0.4541185E-002  0.1249997E+03  0.7818608E-02  0.1235070E+00
         21   -1    0    0  503  502  0.00000000000E+00  0.00000000000E+00  0.30906382084E+02  0.30906382084E+02  0.00000000000E+00 0. -1.
         21   -1    0    0  502  503 -0.00000000000E+00 -0.00000000000E+00 -0.12638905205E+03  0.12638905205E+03  0.00000000000E+00 0. -1.
         25    2    1    2    0    0  0.17763568394E-14  0.17763568394E-14 -0.95482669961E+02  0.15729543413E+03  0.12499965334E+03 0.  0.
    9000006    2    3    3    0    0 -0.44993816595E+01 -0.11407740289E+02 -0.32036894926E+02  0.69115422198E+02  0.60001649771E+02 0.  0.
    9000007    2    3    3    0    0  0.44993816595E+01  0.11407740289E+02 -0.63445775035E+02  0.88180011931E+02  0.59999726337E+02 0.  0.
          5    1    4    4  501    0 -0.15370388461E+02  0.10145640321E+02 -0.39145179650E+02  0.43515720708E+02  0.47000000000E+01 0. -1.
         -5    1    4    4    0  501  0.10871006802E+02 -0.21553380611E+02  0.71082847240E+01  0.25599701489E+02  0.47000000000E+01 0. -1.
         12    1    5    5    0    0  0.58550903550E+01 -0.24362442524E+02 -0.21315995071E+02  0.32896539859E+02  0.00000000000E+00 0. -1.
        -12    1    5    5    0    0 -0.13557086955E+01  0.35770182814E+02 -0.42129779964E+02  0.55283472073E+02  0.00000000000E+00 0. -1.
<mgrwt>
<rscale>  0 0.12499965E+03</rscale>
<asrwt>0</asrwt>
<pdfrwt beam="1">  1       21 0.47548281E-02 0.12499965E+03</pdfrwt>
<pdfrwt beam="2">  1       21 0.19444469E-01 0.12499965E+03</pdfrwt>
<totfact> 0.69852100E+06</totfact>
</mgrwt>
</event>
<event>
 9    1  0.4541185E-002  0.1250031E+03  0.7818608E-02  0.1235064E+00
         21   -1    0    0  503  502  0.00000000000E+00  0.00000000000E+00  0.13561037186E+02  0.13561037186E+02  0.00000000000E+00 0. -1.
         21   -1    0    0  502  503 -0.00000000000E+00 -0.00000000000E+00 -0.28806371767E+03  0.28806371767E+03  0.00000000000E+00 0. -1.
         25    2    1    2    0    0  0.88817841970E-15 -0.17763568394E-14 -0.27450268049E+03  0.30162475486E+03  0.12500308456E+03 0.  0.
    9000006    2    3    3    0    0 -0.78155433466E+01  0.38118579355E+01 -0.17391148243E+03  0.18417601545E+03  0.59999899699E+02 0.  0.
    9000007    2    3    3    0    0  0.78155433466E+01 -0.38118579355E+01 -0.10059119805E+03  0.11744873941E+03  0.60000035712E+02 0.  0.
          5    1    4    4  501    0  0.45992830076E+01  0.13474971791E+02 -0.71558509893E+01  0.16613984240E+02  0.47000000000E+01 0. -1.
         -5    1    4    4    0  501 -0.12414826354E+02 -0.96631138554E+01 -0.16675563145E+03  0.16756203121E+03  0.47000000000E+01 0. -1.
         12    1    5    5    0    0  0.40518725911E+01 -0.17269463266E+02 -0.19757321261E+01  0.17848124563E+02  0.00000000000E+00 0. -1.
        -12    1    5    5    0    0  0.37636707555E+01  0.13457605330E+02 -0.98615465925E+02  0.99600614850E+02  0.00000000000E+00 0. -1.
<mgrwt>
<rscale>  0 0.12500308E+03</rscale>
<asrwt>0</asrwt>
<pdfrwt beam="1">  1       21 0.20863136E-02 0.12500308E+03</pdfrwt>
<pdfrwt beam="2">  1       21 0.44317492E-01 0.12500308E+03</pdfrwt>
<totfact> 0.55317134E+06</totfact>
</mgrwt>
</event>
<event>
 9    1  0.4541185E-002  0.1250004E+03  0.7818608E-02  0.1235069E+00
         21   -1    0    0  503  502  0.00000000000E+00  0.00000000000E+00  0.45098282665E+01  0.45098282665E+01  0.00000000000E+00 0.  1.
         21   -1    0    0  502  503 -0.00000000000E+00 -0.00000000000E+00 -0.86616875224E+03  0.86616875224E+03  0.00000000000E+00 0.  1.
         25    2    1    2    0    0  0.88817841970E-15  0.00000000000E+00 -0.86165892397E+03  0.87067858050E+03  0.12500035716E+03 0.  0.
    9000006    2    3    3    0    0  0.25895833514E+01 -0.15152828298E+02 -0.37255524797E+03  0.37766878157E+03  0.59999847001E+02 0.  0.
    9000007    2    3    3    0    0 -0.25895833514E+01  0.15152828298E+02 -0.48910367600E+03  0.49300979893E+03  0.59999515109E+02 0.  0.
          5    1    4    4  501    0 -0.26556334943E+02  0.27711412676E+01 -0.18214326488E+03  0.18414987671E+03  0.47000000000E+01 0.  1.
         -5    1    4    4    0  501  0.29145918294E+02 -0.17923969566E+02 -0.19041198309E+03  0.19351890487E+03  0.47000000000E+01 0.  1.
         12    1    5    5    0    0  0.56520789116E+01  0.26200278111E+01 -0.46192219984E+03  0.46196420776E+03  0.00000000000E+00 0. -1.
        -12    1    5    5    0    0 -0.82416622631E+01  0.12532800487E+02 -0.27181476157E+02  0.31045591168E+02  0.00000000000E+00 0. -1.
<mgrwt>
<rscale>  0 0.12500036E+03</rscale>
<asrwt>0</asrwt>
<pdfrwt beam="1">  1       21 0.69381985E-03 0.12500036E+03</pdfrwt>
<pdfrwt beam="2">  1       21 0.13325671E+00 0.12500036E+03</pdfrwt>
<totfact> 0.27150017E+06</totfact>
</mgrwt>
</event>
<event>
 9    1  0.4541185E-002  0.1250003E+03  0.7818608E-02  0.1235069E+00
         21   -1    0    0  503  502  0.00000000000E+00  0.00000000000E+00  0.85378602841E+02  0.85378602841E+02  0.00000000000E+00 0. -1.
         21   -1    0    0  502  503 -0.00000000000E+00 -0.00000000000E+00 -0.45752282151E+02  0.45752282151E+02  0.00000000000E+00 0. -1.
         25    2    1    2    0    0 -0.17763568394E-14  0.00000000000E+00  0.39626320689E+02  0.13113088499E+03  0.12500025483E+03 0.  0.
    9000006    2    3    3    0    0 -0.46475004007E+01 -0.10636805714E+02  0.60912332244E+01  0.61421395856E+02  0.60006198438E+02 0.  0.
    9000007    2    3    3    0    0  0.46475004007E+01  0.10636805714E+02  0.33535087465E+02  0.69709489135E+02  0.60000582401E+02 0.  0.
          5    1    4    4  501    0 -0.17238639814E+02 -0.29778820273E+02  0.12923802093E+02  0.37054871475E+02  0.47000000000E+01 0.  1.
         -5    1    4    4    0  501  0.12591139413E+02  0.19142014559E+02 -0.68325688688E+01  0.24366524382E+02  0.47000000000E+01 0.  1.
         12    1    5    5    0    0 -0.24091193314E+02  0.52043372622E+01  0.32040672866E+02  0.40423698982E+02  0.00000000000E+00 0.  1.
        -12    1    5    5    0    0  0.28738693715E+02  0.54324684515E+01  0.14944145983E+01  0.29285790153E+02  0.00000000000E+00 0.  1.
<mgrwt>
<rscale>  0 0.12500025E+03</rscale>
<asrwt>0</asrwt>
<pdfrwt beam="1">  1       21 0.13135170E-01 0.12500025E+03</pdfrwt>
<pdfrwt beam="2">  1       21 0.70388126E-02 0.12500025E+03</pdfrwt>
<totfact> 0.73212563E+06</totfact>
</mgrwt>
</event>
<event>
 9    1  0.4541185E-002  0.1249996E+03  0.7818608E-02  0.1235070E+00
         21   -1    0    0  503  502  0.00000000000E+00  0.00000000000E+00  0.36620953574E+02  0.36620953574E+02  0.00000000000E+00 0. -1.
         21   -1    0    0  502  503 -0.00000000000E+00 -0.00000000000E+00 -0.10666638630E+03  0.10666638630E+03  0.00000000000E+00 0. -1.
         25    2    1    2    0    0  0.17763568394E-14 -0.17763568394E-14 -0.70045432728E+02  0.14328733988E+03  0.12499959649E+03 0.  0.
    9000006    2    3    3    0    0  0.11793268738E+02  0.12832483796E+02 -0.36808102361E+02  0.72516184828E+02  0.60000056956E+02 0.  0.
    9000007    2    3    3    0    0 -0.11793268738E+02 -0.12832483796E+02 -0.33237330367E+02  0.70771155047E+02  0.60000686904E+02 0.  0.
          5    1    4    4  501    0  0.21693519578E+02  0.13350147125E+02  0.74228340933E+01  0.26944826700E+02  0.47000000000E+01 0.  1.
         -5    1    4    4    0  501 -0.99002508400E+01 -0.51766332892E+00 -0.44230936454E+02  0.45571358128E+02  0.47000000000E+01 0.  1.
         12    1    5    5    0    0  0.13975366273E+02 -0.26359269575E+02 -0.50572516345E+01  0.30260498163E+02  0.00000000000E+00 0.  1.
        -12    1    5    5    0    0 -0.25768635010E+02  0.13526785779E+02 -0.28180078733E+02  0.40510656884E+02  0.00000000000E+00 0.  1.
<mgrwt>
<rscale>  0 0.12499960E+03</rscale>
<asrwt>0</asrwt>
<pdfrwt beam="1">  1       21 0.56339929E-02 0.12499960E+03</pdfrwt>
<pdfrwt beam="2">  1       21 0.16410213E-01 0.12499960E+03</pdfrwt>
<totfact> 0.71613741E+06</totfact>
</mgrwt>
</event>
<event>
 9    1  0.4541185E-002  0.1249982E+03  0.7818608E-02  0.1235072E+00
         21   -1    0    0  503  502  0.00000000000E+00  0.00000000000E+00  0.67944976770E+03  0.67944976770E+03  0.00000000000E+00 0. -1.
         21   -1    0    0  502  503 -0.00000000000E+00 -0.00000000000E+00 -0.57489750101E+01  0.57489750101E+01  0.00000000000E+00 0. -1.
         25    2    1    2    0    0 -0.26645352591E-14  0.17763568394E-14  0.67370079269E+03  0.68519874271E+03  0.12499823575E+03 0.  0.
    9000006    2    3    3    0    0 -0.72092921071E+01  0.25729062854E+00  0.24947213661E+03  0.25668735204E+03  0.60000080531E+02 0.  0.
    9000007    2    3    3    0    0  0.72092921071E+01 -0.25729062854E+00  0.42422865608E+03  0.42851139067E+03  0.60000159997E+02 0.  0.
          5    1    4    4  501    0  0.68189023693E+01  0.12591053578E+02  0.22518854872E+03  0.22569227841E+03  0.47000000000E+01 0.  1.
         -5    1    4    4    0  501 -0.14028194476E+02 -0.12333762949E+02  0.24283587892E+02  0.30995073635E+02  0.47000000000E+01 0.  1.
         12    1    5    5    0    0 -0.96876557136E+01 -0.90913647824E+01  0.21113805666E+02  0.24945868927E+02  0.00000000000E+00 0.  1.
        -12    1    5    5    0    0  0.16896947821E+02  0.88340741538E+01  0.40311485041E+03  0.40356552174E+03  0.00000000000E+00 0.  1.
<mgrwt>
<rscale>  0 0.12499824E+03</rscale>
<asrwt>0</asrwt>
<pdfrwt beam="1">  1       21 0.10453067E+00 0.12499824E+03</pdfrwt>
<pdfrwt beam="2">  1       21 0.88445823E-03 0.12499824E+03</pdfrwt>
<totfact> 0.33490113E+06</totfact>
</mgrwt>
</event>
<event>
 9    1  0.4541185E-002  0.1250012E+03  0.7818608E-02  0.1235067E+00
         21   -1    0    0  503  502  0.00000000000E+00  0.00000000000E+00  0.15420903898E+02  0.15420903898E+02  0.00000000000E+00 0.  1.
         21   -1    0    0  502  503 -0.00000000000E+00 -0.00000000000E+00 -0.25331358728E+03  0.25331358728E+03  0.00000000000E+00 0.  1.
         25    2    1    2    0    0  0.00000000000E+00 -0.17763568394E-14 -0.23789268338E+03  0.26873449118E+03  0.12500119176E+03 0.  0.
    9000006    2    3    3    0    0  0.94334400302E+01  0.94339913482E+01 -0.94590967678E+02  0.11280717749E+03  0.60000151198E+02 0.  0.
    9000007    2    3    3    0    0 -0.94334400302E+01 -0.94339913482E+01 -0.14330171570E+03  0.15592731369E+03  0.59999628718E+02 0.  0.
          5    1    4    4  501    0  0.32737110831E+02  0.11197333057E+02 -0.39150864818E+02  0.52459307173E+02  0.47000000000E+01 0. -1.
         -5    1    4    4    0  501 -0.23303670801E+02 -0.17633417090E+01 -0.55440102861E+02  0.60347870319E+02  0.47000000000E+01 0. -1.
         12    1    5    5    0    0 -0.20917610661E+02 -0.30170809067E+02 -0.72546795008E+02  0.81307205225E+02  0.00000000000E+00 0. -1.
        -12    1    5    5    0    0  0.11484170631E+02  0.20736817719E+02 -0.70754920696E+02  0.74620108462E+02  0.00000000000E+00 0. -1.
<mgrwt>
<rscale>  0 0.12500119E+03</rscale>
<asrwt>0</asrwt>
<pdfrwt beam="1">  1       21 0.23724470E-02 0.12500119E+03</pdfrwt>
<pdfrwt beam="2">  1       21 0.38971318E-01 0.12500119E+03</pdfrwt>
<totfact> 0.58156098E+06</totfact>
</mgrwt>
</event>
<event>
 9    1  0.4541185E-002  0.1250061E+03  0.7818608E-02  0.1235060E+00
         21   -1    0    0  503  502  0.00000000000E+00  0.00000000000E+00  0.30773275683E+03  0.30773275683E+03  0.00000000000E+00 0.  1.
         21   -1    0    0  502  503 -0.00000000000E+00 -0.00000000000E+00 -0.12694890039E+02  0.12694890039E+02  0.00000000000E+00 0.  1.
         25    2    1    2    0    0  0.88817841970E-15  0.17763568394E-14  0.29503786679E+03  0.32042764687E+03  0.12500613600E+03 0.  0.
    9000006    2    3    3    0    0 -0.50473352240E+01 -0.14623079378E+02  0.16854015745E+03  0.17956949805E+03  0.60000915947E+02 0.  0.
    9000007    2    3    3    0    0  0.50473352240E+01  0.14623079378E+02  0.12649770934E+03  0.14085814882E+03  0.60000313132E+02 0.  0.
          5    1    4    4  501    0 -0.96772736366E+01 -0.91378446832E+01  0.17023890303E+03  0.17082307788E+03  0.47000000000E+01 0.  1.
         -5    1    4    4    0  501  0.46299384126E+01 -0.54852346952E+01 -0.16987455794E+01  0.87464201769E+01  0.47000000000E+01 0.  1.
         12    1    5    5    0    0 -0.12905880800E+02  0.30937863706E+02  0.46916887347E+02  0.57662010789E+02  0.00000000000E+00 0.  1.
        -12    1    5    5    0    0  0.17953216024E+02 -0.16314784328E+02  0.79580821996E+02  0.83196138028E+02  0.00000000000E+00 0.  1.
<mgrwt>
<rscale>  0 0.12500614E+03</rscale>
<asrwt>0</asrwt>
<pdfrwt beam="1">  1       21 0.47343495E-01 0.12500614E+03</pdfrwt>
<pdfrwt beam="2">  1       21 0.19530602E-02 0.12500614E+03</pdfrwt>
<totfact> 0.53791193E+06</totfact>
</mgrwt>
</event>
<event>
 9    1  0.4541185E-002  0.1250001E+03  0.7818608E-02  0.1235069E+00
         21   -1    0    0  503  502  0.00000000000E+00  0.00000000000E+00  0.69070276957E+02  0.69070276957E+02  0.00000000000E+00 0. -1.
         21   -1    0    0  502  503 -0.00000000000E+00 -0.00000000000E+00 -0.56554767755E+02  0.56554767755E+02  0.00000000000E+00 0. -1.
         25    2    1    2    0    0  0.44408920985E-15 -0.17763568394E-14  0.12515509202E+02  0.12562504471E+03  0.12500005555E+03 0.  0.
    9000006    2    3    3    0    0  0.14757002155E+01 -0.84698849069E+00  0.23762228863E+02  0.64556414351E+02  0.59999933605E+02 0.  0.
    9000007    2    3    3    0    0 -0.14757002155E+01  0.84698849069E+00 -0.11246719661E+02  0.61068630361E+02  0.59999948587E+02 0.  0.
          5    1    4    4  501    0 -0.29875645172E+01  0.13419601519E+02 -0.16122817375E+02  0.21703605387E+02  0.47000000000E+01 0. -1.
         -5    1    4    4    0  501  0.44632647327E+01 -0.14266590010E+02  0.39885046239E+02  0.42852808963E+02  0.47000000000E+01 0. -1.
         12    1    5    5    0    0  0.29101701256E+01  0.24502526046E+02  0.12154751330E+02  0.27506014846E+02  0.00000000000E+00 0.  1.
        -12    1    5    5    0    0 -0.43858703411E+01 -0.23655537555E+02 -0.23401470991E+02  0.33562615515E+02  0.00000000000E+00 0.  1.
<mgrwt>
<rscale>  0 0.12500006E+03</rscale>
<asrwt>0</asrwt>
<pdfrwt beam="1">  1       21 0.10626196E-01 0.12500006E+03</pdfrwt>
<pdfrwt beam="2">  1       21 0.87007335E-02 0.12500006E+03</pdfrwt>
<totfact> 0.73957851E+06</totfact>
</mgrwt>
</event>
<event>
 9    1  0.4541185E-002  0.1249913E+03  0.7818608E-02  0.1235083E+00
         21   -1    0    0  503  502  0.00000000000E+00  0.00000000000E+00  0.74992471268E+01  0.74992471268E+01  0.00000000000E+00 0. -1.
         21   -1    0    0  502  503 -0.00000000000E+00 -0.00000000000E+00 -0.52081276494E+03  0.52081276494E+03  0.00000000000E+00 0. -1.
         25    2    1    2    0    0  0.00000000000E+00  0.00000000000E+00 -0.51331351781E+03  0.52831201206E+03  0.12499125779E+03 0.  0.
    9000006    2    3    3    0    0  0.13424608901E+01 -0.80421915157E+01 -0.19128063810E+03  0.20063580629E+03  0.59999710045E+02 0.  0.
    9000007    2    3    3    0    0 -0.13424608901E+01  0.80421915157E+01 -0.32203287971E+03  0.32767620578E+03  0.60000343119E+02 0.  0.
          5    1    4    4  501    0  0.24057325339E+02  0.48207171795E+01 -0.14629824530E+03  0.14841583741E+03  0.47000000000E+01 0. -1.
         -5    1    4    4    0  501 -0.22714864449E+02 -0.12862908695E+02 -0.44982392799E+02  0.52219968872E+02  0.47000000000E+01 0. -1.
         12    1    5    5    0    0 -0.25876780599E+02 -0.12096685972E+02 -0.16733436464E+03  0.16975490324E+03  0.00000000000E+00 0. -1.
        -12    1    5    5    0    0  0.24534319709E+02  0.20138877488E+02 -0.15469851507E+03  0.15792130254E+03  0.00000000000E+00 0. -1.
<mgrwt>
<rscale>  0 0.12499126E+03</rscale>
<asrwt>0</asrwt>
<pdfrwt beam="1">  1       21 0.11537303E-02 0.12499126E+03</pdfrwt>
<pdfrwt beam="2">  1       21 0.80125040E-01 0.12499126E+03</pdfrwt>
<totfact> 0.40557946E+06</totfact>
</mgrwt>
</event>
<event>
 9    1  0.4541185E-002  0.1249948E+03  0.7818608E-02  0.1235077E+00
         21   -1    0    0  503  502  0.00000000000E+00  0.00000000000E+00  0.10164477466E+03  0.10164477466E+03  0.00000000000E+00 0.  1.
         21   -1    0    0  502  503 -0.00000000000E+00 -0.00000000000E+00 -0.38427221013E+02  0.38427221013E+02  0.00000000000E+00 0.  1.
         25    2    1    2    0    0  0.00000000000E+00  0.00000000000E+00  0.63217553647E+02  0.14007199567E+03  0.12499481942E+03 0.  0.
    9000006    2    3    3    0    0 -0.10192821246E+02  0.14211825521E+02  0.31191161156E+02  0.69848330472E+02  0.60000259548E+02 0.  0.
    9000007    2    3    3    0    0  0.10192821246E+02 -0.14211825521E+02  0.32026392490E+02  0.70223665200E+02  0.59998364549E+02 0.  0.
          5    1    4    4  501    0  0.13468682494E+02  0.19018045280E+02 -0.66761414342E+01  0.24693163403E+02  0.47000000000E+01 0. -1.
         -5    1    4    4    0  501 -0.23661503739E+02 -0.48062197588E+01  0.37867302590E+02  0.45155167069E+02  0.47000000000E+01 0. -1.
         12    1    5    5    0    0  0.16995992927E+02 -0.24442516582E+02  0.43962408857E+02  0.53094197281E+02  0.00000000000E+00 0.  1.
        -12    1    5    5    0    0 -0.68031716811E+01  0.10230691061E+02 -0.11936016366E+02  0.17129467919E+02  0.00000000000E+00 0.  1.
<mgrwt>
<rscale>  0 0.12499482E+03</rscale>
<asrwt>0</asrwt>
<pdfrwt beam="1">  1       21 0.15637658E-01 0.12499482E+03</pdfrwt>
<pdfrwt beam="2">  1       21 0.59118802E-02 0.12499482E+03</pdfrwt>
<totfact> 0.72039418E+06</totfact>
</mgrwt>
</event>
<event>
 9    1  0.4541185E-002  0.1249989E+03  0.7818608E-02  0.1235071E+00
         21   -1    0    0  503  502  0.00000000000E+00  0.00000000000E+00  0.16091808327E+04  0.16091808327E+04  0.00000000000E+00 0. -1.
         21   -1    0    0  502  503 -0.00000000000E+00 -0.00000000000E+00 -0.24274357846E+01  0.24274357846E+01  0.00000000000E+00 0. -1.
         25    2    1    2    0    0  0.00000000000E+00  0.00000000000E+00  0.16067533969E+04  0.16116082685E+04  0.12499893019E+03 0.  0.
    9000006    2    3    3    0    0 -0.87056227682E+01 -0.14946345489E+02  0.83759469585E+03  0.83991900934E+03  0.59999055243E+02 0.  0.
    9000007    2    3    3    0    0  0.87056227682E+01  0.14946345489E+02  0.76915870110E+03  0.77168925917E+03  0.60000201144E+02 0.  0.
          5    1    4    4  501    0 -0.22568471933E+02 -0.48877863752E+01  0.75802590885E+03  0.75839211156E+03  0.47000000000E+01 0.  1.
         -5    1    4    4    0  501  0.13862849165E+02 -0.10058559114E+02  0.79568786998E+02  0.81526897787E+02  0.47000000000E+01 0.  1.
         12    1    5    5    0    0  0.30231948407E+02 -0.34250699887E+01  0.26580917930E+03  0.26754480299E+03  0.00000000000E+00 0.  1.
        -12    1    5    5    0    0 -0.21526325638E+02  0.18371415478E+02  0.50334952180E+03  0.50414445618E+03  0.00000000000E+00 0.  1.
<mgrwt>
<rscale>  0 0.12499893E+03</rscale>
<asrwt>0</asrwt>
<pdfrwt beam="1">  1       21 0.24756543E+00 0.12499893E+03</pdfrwt>
<pdfrwt beam="2">  1       21 0.37345294E-03 0.12499893E+03</pdfrwt>
<totfact> 0.12417215E+06</totfact>
</mgrwt>
</event>
<event>
 9    1  0.4541185E-002  0.1250027E+03  0.7818608E-02  0.1235065E+00
         21   -1    0    0  503  502  0.00000000000E+00  0.00000000000E+00  0.39873973347E+01  0.39873973347E+01  0.00000000000E+00 0.  1.
         21   -1    0    0  502  503 -0.00000000000E+00 -0.00000000000E+00 -0.97969176443E+03  0.97969176443E+03  0.00000000000E+00 0.  1.
         25    2    1    2    0    0  0.00000000000E+00 -0.35527136788E-14 -0.97570436709E+03  0.98367916176E+03  0.12500272526E+03 0.  0.
    9000006    2    3    3    0    0 -0.77306117720E+01 -0.12686956381E+02 -0.56070089438E+03  0.56409753684E+03  0.59998474056E+02 0.  0.
    9000007    2    3    3    0    0  0.77306117720E+01  0.12686956381E+02 -0.41500347271E+03  0.41958162492E+03  0.60001136561E+02 0.  0.
          5    1    4    4  501    0  0.23354150144E+02  0.66867755884E+01 -0.20665965100E+03  0.20813560639E+03  0.47000000000E+01 0.  1.
         -5    1    4    4    0  501 -0.31084761916E+02 -0.19373731969E+02 -0.35404124338E+03  0.35596193045E+03  0.47000000000E+01 0.  1.
         12    1    5    5    0    0  0.57132906279E+01  0.36256960527E+02 -0.29446823306E+03  0.29674694464E+03  0.00000000000E+00 0. -1.
        -12    1    5    5    0    0  0.20173211441E+01 -0.23570004147E+02 -0.12053523965E+03  0.12283468028E+03  0.00000000000E+00 0. -1.
<mgrwt>
<rscale>  0 0.12500273E+03</rscale>
<asrwt>0</asrwt>
<pdfrwt beam="1">  1       21 0.61344591E-03 0.12500273E+03</pdfrwt>
<pdfrwt beam="2">  1       21 0.15072177E+00 0.12500273E+03</pdfrwt>
<totfact> 0.24029229E+06</totfact>
</mgrwt>
</event>
<event>
 9    1  0.4541185E-002  0.1249963E+03  0.7818608E-02  0.1235075E+00
         21   -1    0    0  503  502  0.00000000000E+00  0.00000000000E+00  0.98760778077E+02  0.98760778077E+02  0.00000000000E+00 0. -1.
         21   -1    0    0  502  503 -0.00000000000E+00 -0.00000000000E+00 -0.39550284969E+02  0.39550284969E+02  0.00000000000E+00 0. -1.
         25    2    1    2    0    0  0.00000000000E+00 -0.44408920985E-15  0.59210493108E+02  0.13831106305E+03  0.12499627061E+03 0.  0.
    9000006    2    3    3    0    0 -0.15947984452E+02  0.29727505669E+01  0.22363358030E+02  0.66055854132E+02  0.60000671902E+02 0.  0.
    9000007    2    3    3    0    0  0.15947984452E+02 -0.29727505669E+01  0.36847135078E+02  0.72255208915E+02  0.59999403313E+02 0.  0.
          5    1    4    4  501    0  0.12107649789E+02  0.35054915194E+01 -0.14309689817E+02  0.19640287088E+02  0.47000000000E+01 0. -1.
         -5    1    4    4    0  501 -0.28055634241E+02 -0.53274095252E+00  0.36673047847E+02  0.46415567044E+02  0.47000000000E+01 0. -1.
         12    1    5    5    0    0  0.68416513451E+00  0.26614673369E+02  0.69664477370E+01  0.27519816760E+02  0.00000000000E+00 0.  1.
        -12    1    5    5    0    0  0.15263819317E+02 -0.29587423936E+02  0.29880687341E+02  0.44735392155E+02  0.00000000000E+00 0.  1.
<mgrwt>
<rscale>  0 0.12499627E+03</rscale>
<asrwt>0</asrwt>
<pdfrwt beam="1">  1       21 0.15193966E-01 0.12499627E+03</pdfrwt>
<pdfrwt beam="2">  1       21 0.60846592E-02 0.12499627E+03</pdfrwt>
<totfact> 0.72267436E+06</totfact>
</mgrwt>
</event>
<event>
 9    1  0.4541185E-002  0.1250002E+03  0.7818608E-02  0.1235069E+00
         21   -1    0    0  503  502  0.00000000000E+00  0.00000000000E+00  0.54820449956E+02  0.54820449956E+02  0.00000000000E+00 0.  1.
         21   -1    0    0  502  503 -0.00000000000E+00 -0.00000000000E+00 -0.71255545846E+02  0.71255545846E+02  0.00000000000E+00 0.  1.
         25    2    1    2    0    0  0.35527136788E-14  0.88817841970E-15 -0.16435095889E+02  0.12607599580E+03  0.12500017736E+03 0.  0.
    9000006    2    3    3    0    0 -0.15713770375E+02 -0.37371264278E+01 -0.14195761054E+01  0.62151336828E+02  0.59999039824E+02 0.  0.
    9000007    2    3    3    0    0  0.15713770375E+02  0.37371264278E+01 -0.15015519784E+02  0.63924658974E+02  0.60000062477E+02 0.  0.
          5    1    4    4  501    0 -0.33864373377E+02 -0.12465722906E+02 -0.12762248960E+02  0.38563649079E+02  0.47000000000E+01 0.  1.
         -5    1    4    4    0  501  0.18150603002E+02  0.87285964779E+01  0.11342672855E+02  0.23587687748E+02  0.47000000000E+01 0.  1.
         12    1    5    5    0    0  0.31852199069E+02 -0.71687215311E+01 -0.25843524415E+02  0.41639415320E+02  0.00000000000E+00 0. -1.
        -12    1    5    5    0    0 -0.16138428695E+02  0.10905847959E+02  0.10828004631E+02  0.22285243654E+02  0.00000000000E+00 0. -1.
<mgrwt>
<rscale>  0 0.12500018E+03</rscale>
<asrwt>0</asrwt>
<pdfrwt beam="1">  1       21 0.84339154E-02 0.12500018E+03</pdfrwt>
<pdfrwt beam="2">  1       21 0.10962392E-01 0.12500018E+03</pdfrwt>
<totfact> 0.73895233E+06</totfact>
</mgrwt>
</event>
<event>
 9    1  0.4541185E-002  0.1250009E+03  0.7818608E-02  0.1235068E+00
         21   -1    0    0  503  502  0.00000000000E+00  0.00000000000E+00  0.12693057990E+04  0.12693057990E+04  0.00000000000E+00 0.  1.
         21   -1    0    0  502  503 -0.00000000000E+00 -0.00000000000E+00 -0.30775149714E+01  0.30775149714E+01  0.00000000000E+00 0.  1.
         25    2    1    2    0    0 -0.17763568394E-14  0.71054273576E-14  0.12662282840E+04  0.12723833140E+04  0.12500092159E+03 0.  0.
    9000006    2    3    3    0    0 -0.39990424192E+01  0.16342386983E+02  0.68220025030E+03  0.68504034644E+03  0.60000239974E+02 0.  0.
    9000007    2    3    3    0    0  0.39990424192E+01 -0.16342386983E+02  0.58402803371E+03  0.58734296751E+03  0.59999594731E+02 0.  0.
          5    1    4    4  501    0 -0.22145101847E+02  0.83786020398E+01  0.59515069939E+03  0.59564003516E+03  0.47000000000E+01 0.  1.
         -5    1    4    4    0  501  0.18146059427E+02  0.79637849433E+01  0.87049550910E+02  0.89400311280E+02  0.47000000000E+01 0.  1.
         12    1    5    5    0    0 -0.13403499271E+02 -0.33266206274E+02  0.26887775927E+03  0.27125918179E+03  0.00000000000E+00 0.  1.
        -12    1    5    5    0    0  0.17402541690E+02  0.16923819291E+02  0.31515027444E+03  0.31608378572E+03  0.00000000000E+00 0.  1.
<mgrwt>
<rscale>  0 0.12500092E+03</rscale>
<asrwt>0</asrwt>
<pdfrwt beam="1">  1       21 0.19527740E+00 0.12500092E+03</pdfrwt>
<pdfrwt beam="2">  1       21 0.47346486E-03 0.12500092E+03</pdfrwt>
<totfact> 0.17755257E+06</totfact>
</mgrwt>
</event>
<event>
 9    1  0.4541185E-002  0.1249993E+03  0.7818608E-02  0.1235070E+00
         21   -1    0    0  503  502  0.00000000000E+00  0.00000000000E+00  0.22194606000E+03  0.22194606000E+03  0.00000000000E+00 0.  1.
         21   -1    0    0  502  503 -0.00000000000E+00 -0.00000000000E+00 -0.17599812587E+02  0.17599812587E+02  0.00000000000E+00 0.  1.
         25    2    1    2    0    0  0.35527136788E-14  0.00000000000E+00  0.20434624741E+03  0.23954587259E+03  0.12499934496E+03 0.  0.
    9000006    2    3    3    0    0  0.52597818340E+01 -0.14985152534E+02  0.88087570082E+02  0.10775674250E+03  0.59998962078E+02 0.  0.
    9000007    2    3    3    0    0 -0.52597818340E+01  0.14985152534E+02  0.11625867733E+03  0.13178913008E+03  0.60000622098E+02 0.  0.
          5    1    4    4  501    0  0.23194659021E+02 -0.29995280671E+02  0.53705473708E+02  0.65909612165E+02  0.47000000000E+01 0.  1.
         -5    1    4    4    0  501 -0.17934877187E+02  0.15010128136E+02  0.34382096374E+02  0.41847130337E+02  0.47000000000E+01 0.  1.
         12    1    5    5    0    0  0.23125386658E+02  0.67085465646E+01  0.20675843937E+02  0.31737653152E+02  0.00000000000E+00 0.  1.
        -12    1    5    5    0    0 -0.28385168492E+02  0.82766059696E+01  0.95582833392E+02  0.10005147693E+03  0.00000000000E+00 0.  1.
<mgrwt>
<rscale>  0 0.12499934E+03</rscale>
<asrwt>0</asrwt>
<pdfrwt beam="1">  1       21 0.34145546E-01 0.12499934E+03</pdfrwt>
<pdfrwt beam="2">  1       21 0.27076636E-02 0.12499934E+03</pdfrwt>
<totfact> 0.60877642E+06</totfact>
</mgrwt>
</event>
<event>
 9    1  0.4541185E-002  0.1249907E+03  0.7818608E-02  0.1235084E+00
         21   -1    0    0  503  502  0.00000000000E+00  0.00000000000E+00  0.35016935236E+02  0.35016935236E+02  0.00000000000E+00 0. -1.
         21   -1    0    0  502  503 -0.00000000000E+00 -0.00000000000E+00 -0.11153658131E+03  0.11153658131E+03  0.00000000000E+00 0. -1.
         25    2    1    2    0    0  0.00000000000E+00  0.00000000000E+00 -0.76519646070E+02  0.14655351654E+03  0.12499070756E+03 0.  0.
    9000006    2    3    3    0    0  0.14230770454E+01  0.12037531806E+02 -0.53038854213E+02  0.80994079828E+02  0.59999946588E+02 0.  0.
    9000007    2    3    3    0    0 -0.14230770454E+01 -0.12037531806E+02 -0.23480791856E+02  0.65559436714E+02  0.59998040266E+02 0.  0.
          5    1    4    4  501    0  0.25182387444E+02 -0.87017318010E+01 -0.13608753340E+02  0.30284665116E+02  0.47000000000E+01 0. -1.
         -5    1    4    4    0  501 -0.23759310398E+02  0.20739263607E+02 -0.39430100874E+02  0.50709414712E+02  0.47000000000E+01 0. -1.
         12    1    5    5    0    0  0.20160704788E+02 -0.25507177747E+02 -0.23502016196E+02  0.40117513625E+02  0.00000000000E+00 0.  1.
        -12    1    5    5    0    0 -0.21583781834E+02  0.13469645941E+02  0.21224339204E-01  0.25441923089E+02  0.00000000000E+00 0.  1.
<mgrwt>
<rscale>  0 0.12499071E+03</rscale>
<asrwt>0</asrwt>
<pdfrwt beam="1">  1       21 0.53872207E-02 0.12499071E+03</pdfrwt>
<pdfrwt beam="2">  1       21 0.17159474E-01 0.12499071E+03</pdfrwt>
<totfact> 0.71211724E+06</totfact>
</mgrwt>
</event>
<event>
 9    1  0.4541185E-002  0.1250243E+03  0.7818608E-02  0.1235031E+00
         21   -1    0    0  503  502  0.00000000000E+00  0.00000000000E+00  0.10605744164E+02  0.10605744164E+02  0.00000000000E+00 0. -1.
         21   -1    0    0  502  503 -0.00000000000E+00 -0.00000000000E+00 -0.36845748992E+03  0.36845748992E+03  0.00000000000E+00 0. -1.
         25    2    1    2    0    0  0.00000000000E+00  0.00000000000E+00 -0.35785174576E+03  0.37906323409E+03  0.12502425162E+03 0.  0.
    9000006    2    3    3    0    0 -0.98847612939E+01  0.14332501287E+02 -0.17228601268E+03  0.18326290848E+03  0.59997452937E+02 0.  0.
    9000007    2    3    3    0    0  0.98847612939E+01 -0.14332501287E+02 -0.18556573308E+03  0.19580032561E+03  0.59999975976E+02 0.  0.
          5    1    4    4  501    0  0.65273267629E+01 -0.81700152407E+01 -0.32969738900E+01  0.11929592639E+02  0.47000000000E+01 0. -1.
         -5    1    4    4    0  501 -0.16412088057E+02  0.22502516528E+02 -0.16898903879E+03  0.17133331584E+03  0.47000000000E+01 0. -1.
         12    1    5    5    0    0  0.23228929910E+02  0.16624192720E+02 -0.77366316076E+02  0.82471169699E+02  0.00000000000E+00 0.  1.
        -12    1    5    5    0    0 -0.13344168616E+02 -0.30956694007E+02 -0.10819941700E+03  0.11332915591E+03  0.00000000000E+00 0.  1.
<mgrwt>
<rscale>  0 0.12502425E+03</rscale>
<asrwt>0</asrwt>
<pdfrwt beam="1">  1       21 0.16316529E-02 0.12502425E+03</pdfrwt>
<pdfrwt beam="2">  1       21 0.56685771E-01 0.12502425E+03</pdfrwt>
<totfact> 0.49431084E+06</totfact>
</mgrwt>
</event>
<event>
 9    1  0.4541185E-002  0.1250012E+03  0.7818608E-02  0.1235067E+00
         21   -1    0    0  503  502  0.00000000000E+00  0.00000000000E+00  0.22922733947E+02  0.22922733947E+02  0.00000000000E+00 0. -1.
         21   -1    0    0  502  503 -0.00000000000E+00 -0.00000000000E+00 -0.17041280059E+03  0.17041280059E+03  0.00000000000E+00 0. -1.
         25    2    1    2    0    0  0.00000000000E+00  0.00000000000E+00 -0.14749006664E+03  0.19333553454E+03  0.12500123662E+03 0.  0.
    9000006    2    3    3    0    0 -0.10222954082E+02  0.72492615720E+01 -0.54845367349E+02  0.82249924302E+02  0.59999792870E+02 0.  0.
    9000007    2    3    3    0    0  0.10222954082E+02 -0.72492615720E+01 -0.92644699295E+02  0.11108561024E+03  0.59999265917E+02 0.  0.
          5    1    4    4  501    0 -0.13123935472E+02 -0.10793088429E+02 -0.60124929068E+02  0.62656408575E+02  0.47000000000E+01 0.  1.
         -5    1    4    4    0  501  0.29009813904E+01  0.18042350001E+02  0.52795617183E+01  0.19593515727E+02  0.47000000000E+01 0.  1.
         12    1    5    5    0    0 -0.14532264886E+02 -0.26135320174E+02 -0.40349976699E+02  0.50223125181E+02  0.00000000000E+00 0.  1.
        -12    1    5    5    0    0  0.24755218968E+02  0.18886058602E+02 -0.52294722596E+02  0.60862485055E+02  0.00000000000E+00 0.  1.
<mgrwt>
<rscale>  0 0.12500124E+03</rscale>
<asrwt>0</asrwt>
<pdfrwt beam="1">  1       21 0.35265746E-02 0.12500124E+03</pdfrwt>
<pdfrwt beam="2">  1       21 0.26217353E-01 0.12500124E+03</pdfrwt>
<totfact> 0.65651599E+06</totfact>
</mgrwt>
</event>
<event>
 9    1  0.4541185E-002  0.1249986E+03  0.7818608E-02  0.1235071E+00
         21   -1    0    0  503  502  0.00000000000E+00  0.00000000000E+00  0.67359168425E+01  0.67359168425E+01  0.00000000000E+00 0. -1.
         21   -1    0    0  502  503 -0.00000000000E+00 -0.00000000000E+00 -0.57990059176E+03  0.57990059176E+03  0.00000000000E+00 0. -1.
         25    2    1    2    0    0  0.00000000000E+00 -0.35527136788E-14 -0.57316467492E+03  0.58663650860E+03  0.12499859460E+03 0.  0.
    9000006    2    3    3    0    0 -0.49480536644E+01 -0.95731132447E+01 -0.22188066337E+03  0.23010243294E+03  0.59999776161E+02 0.  0.
    9000007    2    3    3    0    0  0.49480536644E+01  0.95731132447E+01 -0.35128401155E+03  0.35653407566E+03  0.59999688339E+02 0.  0.
          5    1    4    4  501    0 -0.59053731171E+00  0.24762256706E+02 -0.11206226164E+03  0.11486321681E+03  0.47000000000E+01 0.  1.
         -5    1    4    4    0  501 -0.43575163527E+01 -0.34335369951E+02 -0.10981840172E+03  0.11523921614E+03  0.47000000000E+01 0.  1.
         12    1    5    5    0    0 -0.21893993756E+02  0.21939529026E+02 -0.20042673834E+03  0.20280918949E+03  0.00000000000E+00 0.  1.
        -12    1    5    5    0    0  0.26842047420E+02 -0.12366415781E+02 -0.15085727321E+03  0.15372488617E+03  0.00000000000E+00 0.  1.
<mgrwt>
<rscale>  0 0.12499859E+03</rscale>
<asrwt>0</asrwt>
<pdfrwt beam="1">  1       21 0.10362947E-02 0.12499859E+03</pdfrwt>
<pdfrwt beam="2">  1       21 0.89215495E-01 0.12499859E+03</pdfrwt>
<totfact> 0.37705346E+06</totfact>
</mgrwt>
</event>
<event>
 9    1  0.4541185E-002  0.1250068E+03  0.7818608E-02  0.1235059E+00
         21   -1    0    0  503  502  0.00000000000E+00  0.00000000000E+00  0.83539885121E+02  0.83539885121E+02  0.00000000000E+00 0. -1.
         21   -1    0    0  502  503 -0.00000000000E+00 -0.00000000000E+00 -0.46764204837E+02  0.46764204837E+02  0.00000000000E+00 0. -1.
         25    2    1    2    0    0  0.35527136788E-14  0.00000000000E+00  0.36775680284E+02  0.13030408996E+03  0.12500682061E+03 0.  0.
    9000006    2    3    3    0    0  0.13554390603E+02  0.38377483287E+01  0.75423857943E+01  0.62090745898E+02  0.59999361045E+02 0.  0.
    9000007    2    3    3    0    0 -0.13554390603E+02 -0.38377483287E+01  0.29233294490E+02  0.68213344060E+02  0.60000208202E+02 0.  0.
          5    1    4    4  501    0  0.13412379061E+00  0.12290006706E+02 -0.23490136740E+02  0.26924687150E+02  0.47000000000E+01 0. -1.
         -5    1    4    4    0  501  0.13420266812E+02 -0.84522583776E+01  0.31032522535E+02  0.35166058748E+02  0.47000000000E+01 0. -1.
         12    1    5    5    0    0  0.15728871996E+02 -0.17175204309E+02  0.27432937680E+02  0.35985429372E+02  0.00000000000E+00 0. -1.
        -12    1    5    5    0    0 -0.29283262599E+02  0.13337455981E+02  0.18003568093E+01  0.32227914688E+02  0.00000000000E+00 0. -1.
<mgrwt>
<rscale>  0 0.12500682E+03</rscale>
<asrwt>0</asrwt>
<pdfrwt beam="1">  1       21 0.12852290E-01 0.12500682E+03</pdfrwt>
<pdfrwt beam="2">  1       21 0.71944931E-02 0.12500682E+03</pdfrwt>
<totfact> 0.73311535E+06</totfact>
</mgrwt>
</event>
<event>
 9    1  0.4541185E-002  0.1249996E+03  0.7818608E-02  0.1235070E+00
         21   -1    0    0  503  502  0.00000000000E+00  0.00000000000E+00  0.18598154546E+02  0.18598154546E+02  0.00000000000E+00 0.  1.
         21   -1    0    0  502  503 -0.00000000000E+00 -0.00000000000E+00 -0.21003305296E+03  0.21003305296E+03  0.00000000000E+00 0.  1.
         25    2    1    2    0    0 -0.88817841970E-15 -0.26645352591E-14 -0.19143489841E+03  0.22863120750E+03  0.12499963486E+03 0.  0.
    9000006    2    3    3    0    0  0.53791626596E+01 -0.59058011524E+01 -0.12420878474E+03  0.13817124841E+03  0.59997148298E+02 0.  0.
    9000007    2    3    3    0    0 -0.53791626596E+01  0.59058011524E+01 -0.67226113674E+02  0.90459959091E+02  0.59998666326E+02 0.  0.
          5    1    4    4  501    0  0.89706385068E+01 -0.32072605946E+02 -0.72286667082E+02  0.79728142116E+02  0.47000000000E+01 0.  1.
         -5    1    4    4    0  501 -0.35914758473E+01  0.26166804794E+02 -0.51922117655E+02  0.58443106297E+02  0.47000000000E+01 0.  1.
         12    1    5    5    0    0 -0.37221283052E+01 -0.36174250046E+01 -0.76729261001E+02  0.76904612973E+02  0.00000000000E+00 0. -1.
        -12    1    5    5    0    0 -0.16570343543E+01  0.95232261570E+01  0.95031473265E+01  0.13555346119E+02  0.00000000000E+00 0. -1.
<mgrwt>
<rscale>  0 0.12499963E+03</rscale>
<asrwt>0</asrwt>
<pdfrwt beam="1">  1       21 0.28612543E-02 0.12499963E+03</pdfrwt>
<pdfrwt beam="2">  1       21 0.32312780E-01 0.12499963E+03</pdfrwt>
<totfact> 0.61951032E+06</totfact>
</mgrwt>
</event>
<event>
 9    1  0.4541185E-002  0.1250114E+03  0.7818608E-02  0.1235051E+00
         21   -1    0    0  503  502  0.00000000000E+00  0.00000000000E+00  0.36584934431E+02  0.36584934431E+02  0.00000000000E+00 0.  1.
         21   -1    0    0  502  503 -0.00000000000E+00 -0.00000000000E+00 -0.10679159319E+03  0.10679159319E+03  0.00000000000E+00 0.  1.
         25    2    1    2    0    0  0.88817841970E-15 -0.35527136788E-14 -0.70206658760E+02  0.14337652762E+03  0.12501141443E+03 0.  0.
    9000006    2    3    3    0    0  0.16453174817E+00  0.16052439677E+02 -0.43166753042E+02  0.75636951739E+02  0.59998933407E+02 0.  0.
    9000007    2    3    3    0    0 -0.16453174817E+00 -0.16052439677E+02 -0.27039905718E+02  0.67739575883E+02  0.59998214550E+02 0.  0.
          5    1    4    4  501    0 -0.14943193463E+02 -0.69687916162E+01  0.67578022007E+01  0.18428808373E+02  0.47000000000E+01 0.  1.
         -5    1    4    4    0  501  0.15107725211E+02  0.23021231294E+02 -0.49924555242E+02  0.57208143367E+02  0.47000000000E+01 0.  1.
         12    1    5    5    0    0 -0.79618274136E+01 -0.37675809447E+02 -0.12263154768E+02  0.40413392312E+02  0.00000000000E+00 0. -1.
        -12    1    5    5    0    0  0.77972956654E+01  0.21623369770E+02 -0.14776750950E+02  0.27326183571E+02  0.00000000000E+00 0. -1.
<mgrwt>
<rscale>  0 0.12501141E+03</rscale>
<asrwt>0</asrwt>
<pdfrwt beam="1">  1       21 0.56284514E-02 0.12501141E+03</pdfrwt>
<pdfrwt beam="2">  1       21 0.16429476E-01 0.12501141E+03</pdfrwt>
<totfact> 0.71580704E+06</totfact>
</mgrwt>
</event>
<event>
 9    1  0.4541185E-002  0.1250005E+03  0.7818608E-02  0.1235069E+00
         21   -1    0    0  503  502  0.00000000000E+00  0.00000000000E+00  0.54700273371E+01  0.54700273371E+01  0.00000000000E+00 0.  1.
         21   -1    0    0  502  503 -0.00000000000E+00 -0.00000000000E+00 -0.71412420915E+03  0.71412420915E+03  0.00000000000E+00 0.  1.
         25    2    1    2    0    0  0.00000000000E+00  0.00000000000E+00 -0.70865418181E+03  0.71959423649E+03  0.12500046314E+03 0.  0.
    9000006    2    3    3    0    0 -0.13081258114E+02 -0.11454236372E+02 -0.34290516558E+03  0.34854890022E+03  0.60000536778E+02 0.  0.
    9000007    2    3    3    0    0  0.13081258114E+02  0.11454236372E+02 -0.36574901623E+03  0.37104533627E+03  0.59999832089E+02 0.  0.
          5    1    4    4  501    0 -0.23718660689E+01 -0.11981123949E+02 -0.33287623799E+03  0.33313338604E+03  0.47000000000E+01 0. -1.
         -5    1    4    4    0  501 -0.10709392045E+02  0.52688757693E+00 -0.10028927594E+02  0.15415514171E+02  0.47000000000E+01 0. -1.
         12    1    5    5    0    0  0.13475342231E+02 -0.27334996907E+01 -0.16370867023E+02  0.21379012042E+02  0.00000000000E+00 0. -1.
        -12    1    5    5    0    0 -0.39408411704E+00  0.14187736063E+02 -0.34937814921E+03  0.34966632423E+03  0.00000000000E+00 0. -1.
<mgrwt>
<rscale>  0 0.12500046E+03</rscale>
<asrwt>0</asrwt>
<pdfrwt beam="1">  1       21 0.84154236E-03 0.12500046E+03</pdfrwt>
<pdfrwt beam="2">  1       21 0.10986530E+00 0.12500046E+03</pdfrwt>
<totfact> 0.32167896E+06</totfact>
</mgrwt>
</event>
<event>
 9    1  0.4541185E-002  0.1249967E+03  0.7818608E-02  0.1235074E+00
         21   -1    0    0  503  502  0.00000000000E+00  0.00000000000E+00  0.15201625668E+02  0.15201625668E+02  0.00000000000E+00 0.  1.
         21   -1    0    0  502  503 -0.00000000000E+00 -0.00000000000E+00 -0.25694903609E+03  0.25694903609E+03  0.00000000000E+00 0.  1.
         25    2    1    2    0    0 -0.88817841970E-15 -0.17763568394E-14 -0.24174741042E+03  0.27215066176E+03  0.12499668895E+03 0.  0.
    9000006    2    3    3    0    0 -0.67496622744E+01 -0.13805148420E+02 -0.10268218506E+03  0.11991630083E+03  0.60001233436E+02 0.  0.
    9000007    2    3    3    0    0  0.67496622744E+01  0.13805148420E+02 -0.13906522536E+03  0.15223436092E+03  0.60000197301E+02 0.  0.
          5    1    4    4  501    0  0.87001119116E+01 -0.11827478385E+02 -0.10249272666E+03  0.10364569557E+03  0.47000000000E+01 0. -1.
         -5    1    4    4    0  501 -0.15449774186E+02 -0.19776700353E+01 -0.18945839835E+00  0.16270605264E+02  0.47000000000E+01 0. -1.
         12    1    5    5    0    0  0.41765720933E+01 -0.16284688993E+01  0.53466786489E+01  0.69772944600E+01  0.00000000000E+00 0.  1.
        -12    1    5    5    0    0  0.25730901812E+01  0.15433617319E+02 -0.14441190401E+03  0.14525706646E+03  0.00000000000E+00 0.  1.
<mgrwt>
<rscale>  0 0.12499669E+03</rscale>
<asrwt>0</asrwt>
<pdfrwt beam="1">  1       21 0.23387118E-02 0.12499669E+03</pdfrwt>
<pdfrwt beam="2">  1       21 0.39530618E-01 0.12499669E+03</pdfrwt>
<totfact> 0.57857811E+06</totfact>
</mgrwt>
</event>
<event>
 9    1  0.4541185E-002  0.1249998E+03  0.7818608E-02  0.1235070E+00
         21   -1    0    0  503  502  0.00000000000E+00  0.00000000000E+00  0.55588090494E+02  0.55588090494E+02  0.00000000000E+00 0.  1.
         21   -1    0    0  502  503 -0.00000000000E+00 -0.00000000000E+00 -0.70271146033E+02  0.70271146033E+02  0.00000000000E+00 0.  1.
         25    2    1    2    0    0 -0.35527136788E-14  0.00000000000E+00 -0.14683055539E+02  0.12585923653E+03  0.12499982120E+03 0.  0.
    9000006    2    3    3    0    0  0.11072517925E+02 -0.36062713003E+01 -0.20494595149E+02  0.64464818915E+02  0.60000655009E+02 0.  0.
    9000007    2    3    3    0    0 -0.11072517925E+02  0.36062713003E+01  0.58115396103E+01  0.61394417612E+02  0.59999122288E+02 0.  0.
          5    1    4    4  501    0  0.13866367466E+02 -0.21992008235E+02 -0.32463330794E+02  0.41855494492E+02  0.47000000000E+01 0.  1.
         -5    1    4    4    0  501 -0.27938495414E+01  0.18385736935E+02  0.11968735645E+02  0.22609324423E+02  0.47000000000E+01 0.  1.
         12    1    5    5    0    0 -0.27039074095E+02 -0.19251806097E+02  0.19989289800E+01  0.33252658284E+02  0.00000000000E+00 0.  1.
        -12    1    5    5    0    0  0.15966556170E+02  0.22858077397E+02  0.38126106303E+01  0.28141759328E+02  0.00000000000E+00 0.  1.
<mgrwt>
<rscale>  0 0.12499982E+03</rscale>
<asrwt>0</asrwt>
<pdfrwt beam="1">  1       21 0.85520140E-02 0.12499982E+03</pdfrwt>
<pdfrwt beam="2">  1       21 0.10810945E-01 0.12499982E+03</pdfrwt>
<totfact> 0.73925812E+06</totfact>
</mgrwt>
</event>
<event>
 9    1  0.4541185E-002  0.1250050E+03  0.7818608E-02  0.1235061E+00
         21   -1    0    0  503  502  0.00000000000E+00  0.00000000000E+00  0.69245338455E+02  0.69245338455E+02  0.00000000000E+00 0. -1.
         21   -1    0    0  502  503 -0.00000000000E+00 -0.00000000000E+00 -0.56416262414E+02  0.56416262414E+02  0.00000000000E+00 0. -1.
         25    2    1    2    0    0 -0.35527136788E-14  0.17763568394E-14  0.12829076041E+02  0.12566160087E+03  0.12500501086E+03 0.  0.
    9000006    2    3    3    0    0  0.11302974486E+02 -0.13090329004E+02  0.91398574465E+01  0.63107715932E+02  0.59999440583E+02 0.  0.
    9000007    2    3    3    0    0 -0.11302974486E+02  0.13090329004E+02  0.36892185949E+01  0.62553884937E+02  0.60002201970E+02 0.  0.
          5    1    4    4  501    0 -0.16031551211E+02  0.14366958760E+02 -0.29949736805E+01  0.22236906385E+02  0.47000000000E+01 0.  1.
         -5    1    4    4    0  501  0.27334525698E+02 -0.27457287764E+02  0.12134831127E+02  0.40870809546E+02  0.47000000000E+01 0.  1.
         12    1    5    5    0    0 -0.34965756018E+02  0.67198143358E+01 -0.61761326273E+01  0.36137302235E+02  0.00000000000E+00 0.  1.
        -12    1    5    5    0    0  0.23662781531E+02  0.63705146681E+01  0.98653512222E+01  0.26416582702E+02  0.00000000000E+00 0.  1.
<mgrwt>
<rscale>  0 0.12500501E+03</rscale>
<asrwt>0</asrwt>
<pdfrwt beam="1">  1       21 0.10653129E-01 0.12500501E+03</pdfrwt>
<pdfrwt beam="2">  1       21 0.86794250E-02 0.12500501E+03</pdfrwt>
<totfact> 0.73943423E+06</totfact>
</mgrwt>
</event>
<event>
 9    1  0.4541185E-002  0.1249958E+03  0.7818608E-02  0.1235076E+00
         21   -1    0    0  503  502  0.00000000000E+00  0.00000000000E+00  0.61845406852E+03  0.61845406852E+03  0.00000000000E+00 0.  1.
         21   -1    0    0  502  503 -0.00000000000E+00 -0.00000000000E+00 -0.63157248572E+01  0.63157248572E+01  0.00000000000E+00 0.  1.
         25    2    1    2    0    0 -0.31086244690E-14 -0.88817841970E-15  0.61213834367E+03  0.62476979338E+03  0.12499577167E+03 0.  0.
    9000006    2    3    3    0    0  0.18218808709E+01  0.33497152087E+01  0.22072933591E+03  0.22877040218E+03  0.59999311158E+02 0.  0.
    9000007    2    3    3    0    0 -0.18218808709E+01 -0.33497152087E+01  0.39140900775E+03  0.39599939120E+03  0.59999721986E+02 0.  0.
          5    1    4    4  501    0  0.26937419002E+02  0.31547321109E+01  0.16725301156E+03  0.16950291075E+03  0.47000000000E+01 0.  1.
         -5    1    4    4    0  501 -0.25115538131E+02  0.19498309776E+00  0.53476324353E+02  0.59267491429E+02  0.47000000000E+01 0.  1.
         12    1    5    5    0    0  0.75809762561E+00  0.24129674038E+02  0.85354912772E+02  0.88703308932E+02  0.00000000000E+00 0.  1.
        -12    1    5    5    0    0 -0.25799784966E+01 -0.27479389246E+02  0.30605409498E+03  0.30729608227E+03  0.00000000000E+00 0.  1.
<mgrwt>
<rscale>  0 0.12499577E+03</rscale>
<asrwt>0</asrwt>
<pdfrwt beam="1">  1       21 0.95146732E-01 0.12499577E+03</pdfrwt>
<pdfrwt beam="2">  1       21 0.97165046E-03 0.12499577E+03</pdfrwt>
<totfact> 0.35999670E+06</totfact>
</mgrwt>
</event>
<event>
 9    1  0.4541185E-002  0.1250006E+03  0.7818608E-02  0.1235068E+00
         21   -1    0    0  503  502  0.00000000000E+00  0.00000000000E+00  0.10379402283E+02  0.10379402283E+02  0.00000000000E+00 0. -1.
         21   -1    0    0  502  503 -0.00000000000E+00 -0.00000000000E+00 -0.37634979777E+03  0.37634979777E+03  0.00000000000E+00 0. -1.
         25    2    1    2    0    0  0.00000000000E+00  0.35527136788E-14 -0.36597039549E+03  0.38672920005E+03  0.12500057520E+03 0.  0.
    9000006    2    3    3    0    0  0.14052404236E+02 -0.10428328015E+02 -0.18206240993E+03  0.19249138518E+03  0.59999934759E+02 0.  0.
    9000007    2    3    3    0    0 -0.14052404236E+02  0.10428328015E+02 -0.18390798556E+03  0.19423781487E+03  0.59999679024E+02 0.  0.
          5    1    4    4  501    0 -0.93395222750E+01  0.15506560106E+02 -0.11711788379E+03  0.11860172337E+03  0.47000000000E+01 0.  1.
         -5    1    4    4    0  501  0.23391926511E+02 -0.25934888121E+02 -0.64944526135E+02  0.73889661812E+02  0.47000000000E+01 0.  1.
         12    1    5    5    0    0 -0.89331230497E+01  0.34907645293E+02 -0.12832279689E+03  0.13328572538E+03  0.00000000000E+00 0. -1.
        -12    1    5    5    0    0 -0.51192811863E+01 -0.24479317278E+02 -0.55585188670E+02  0.60952089495E+02  0.00000000000E+00 0. -1.
<mgrwt>
<rscale>  0 0.12500058E+03</rscale>
<asrwt>0</asrwt>
<pdfrwt beam="1">  1       21 0.15968313E-02 0.12500058E+03</pdfrwt>
<pdfrwt beam="2">  1       21 0.57899964E-01 0.12500058E+03</pdfrwt>
<totfact> 0.48933525E+06</totfact>
</mgrwt>
</event>
<event>
 9    1  0.4541185E-002  0.1250016E+03  0.7818608E-02  0.1235067E+00
         21   -1    0    0  503  502  0.00000000000E+00  0.00000000000E+00  0.71384807805E+01  0.71384807805E+01  0.00000000000E+00 0. -1.
         21   -1    0    0  502  503 -0.00000000000E+00 -0.00000000000E+00 -0.54722390487E+03  0.54722390487E+03  0.00000000000E+00 0. -1.
         25    2    1    2    0    0  0.00000000000E+00  0.00000000000E+00 -0.54008542409E+03  0.55436238566E+03  0.12500155723E+03 0.  0.
    9000006    2    3    3    0    0 -0.16422887420E+02 -0.39807588127E+01 -0.29028247448E+03  0.29689965250E+03  0.59999424947E+02 0.  0.
    9000007    2    3    3    0    0  0.16422887420E+02  0.39807588127E+01 -0.24980294962E+03  0.25746273316E+03  0.59999897121E+02 0.  0.
          5    1    4    4  501    0 -0.78450937180E+01  0.19580942516E+02 -0.23526187578E+03  0.23625240528E+03  0.47000000000E+01 0.  1.
         -5    1    4    4    0  501 -0.85777937017E+01 -0.23561701329E+02 -0.55020598696E+02  0.60647247218E+02  0.47000000000E+01 0.  1.
         12    1    5    5    0    0  0.27851620075E+02  0.10109284471E+02 -0.57153246620E+02  0.64377045385E+02  0.00000000000E+00 0.  1.
        -12    1    5    5    0    0 -0.11428732655E+02 -0.61285256584E+01 -0.19264970300E+03  0.19308568777E+03  0.00000000000E+00 0.  1.
<mgrwt>
<rscale>  0 0.12500156E+03</rscale>
<asrwt>0</asrwt>
<pdfrwt beam="1">  1       21 0.10982284E-02 0.12500156E+03</pdfrwt>
<pdfrwt beam="2">  1       21 0.84188250E-01 0.12500156E+03</pdfrwt>
<totfact> 0.39239869E+06</totfact>
</mgrwt>
</event>
<event>
 9    1  0.4541185E-002  0.1249985E+03  0.7818608E-02  0.1235072E+00
         21   -1    0    0  503  502  0.00000000000E+00  0.00000000000E+00  0.40662241063E+02  0.40662241063E+02  0.00000000000E+00 0. -1.
         21   -1    0    0  502  503 -0.00000000000E+00 -0.00000000000E+00 -0.96063456946E+02  0.96063456946E+02  0.00000000000E+00 0. -1.
         25    2    1    2    0    0  0.17763568394E-14  0.00000000000E+00 -0.55401215883E+02  0.13672569801E+03  0.12499848709E+03 0.  0.
    9000006    2    3    3    0    0 -0.10237423620E+02  0.13863979184E+02 -0.31000650815E+02  0.69699640111E+02  0.59999872662E+02 0.  0.
    9000007    2    3    3    0    0  0.10237423620E+02 -0.13863979184E+02 -0.24400565068E+02  0.67026057897E+02  0.60000750832E+02 0.  0.
          5    1    4    4  501    0 -0.70491820454E+01 -0.57493395653E+01  0.15692285686E+02  0.18737227730E+02  0.47000000000E+01 0. -1.
         -5    1    4    4    0  501 -0.31882415749E+01  0.19613318749E+02 -0.46692936501E+02  0.50962412382E+02  0.47000000000E+01 0. -1.
         12    1    5    5    0    0  0.24394658312E+02 -0.26247987343E+02 -0.30703708190E+02  0.47188705114E+02  0.00000000000E+00 0. -1.
        -12    1    5    5    0    0 -0.14157234692E+02  0.12384008159E+02  0.63031431219E+01  0.19837352783E+02  0.00000000000E+00 0. -1.
<mgrwt>
<rscale>  0 0.12499849E+03</rscale>
<asrwt>0</asrwt>
<pdfrwt beam="1">  1       21 0.62557294E-02 0.12499849E+03</pdfrwt>
<pdfrwt beam="2">  1       21 0.14778993E-01 0.12499849E+03</pdfrwt>
<totfact> 0.72471572E+06</totfact>
</mgrwt>
</event>
<event>
 9    1  0.4541185E-002  0.1250010E+03  0.7818608E-02  0.1235068E+00
         21   -1    0    0  503  502  0.00000000000E+00  0.00000000000E+00  0.89416672669E+03  0.89416672669E+03  0.00000000000E+00 0. -1.
         21   -1    0    0  502  503 -0.00000000000E+00 -0.00000000000E+00 -0.43686604971E+01  0.43686604971E+01  0.00000000000E+00 0. -1.
         25    2    1    2    0    0  0.00000000000E+00 -0.17763568394E-14  0.88979806619E+03  0.89853538718E+03  0.12500097370E+03 0.  0.
    9000006    2    3    3    0    0 -0.11905956584E+02 -0.12324768273E+02  0.47049649955E+03  0.47461624156E+03  0.59999741248E+02 0.  0.
    9000007    2    3    3    0    0  0.11905956584E+02  0.12324768273E+02  0.41930156664E+03  0.42391914563E+03  0.59999887696E+02 0.  0.
          5    1    4    4  501    0 -0.10621847895E+02 -0.35857624820E+02  0.32015657220E+03  0.32236766841E+03  0.47000000000E+01 0.  1.
         -5    1    4    4    0  501 -0.12841086894E+01  0.23532856546E+02  0.15033992734E+03  0.15224857315E+03  0.47000000000E+01 0.  1.
         12    1    5    5    0    0  0.24378397084E+02  0.16498482477E+02  0.39653879641E+03  0.39762988221E+03  0.00000000000E+00 0.  1.
        -12    1    5    5    0    0 -0.12472440499E+02 -0.41737142032E+01  0.22762770235E+02  0.26289263417E+02  0.00000000000E+00 0.  1.
<mgrwt>
<rscale>  0 0.12500097E+03</rscale>
<asrwt>0</asrwt>
<pdfrwt beam="1">  1       21 0.13756397E+00 0.12500097E+03</pdfrwt>
<pdfrwt beam="2">  1       21 0.67210233E-03 0.12500097E+03</pdfrwt>
<totfact> 0.26340659E+06</totfact>
</mgrwt>
</event>
<event>
 9    1  0.4541185E-002  0.1250008E+03  0.7818608E-02  0.1235068E+00
         21   -1    0    0  503  502  0.00000000000E+00  0.00000000000E+00  0.40796379531E+01  0.40796379531E+01  0.00000000000E+00 0. -1.
         21   -1    0    0  502  503 -0.00000000000E+00 -0.00000000000E+00 -0.95751100558E+03  0.95751100558E+03  0.00000000000E+00 0. -1.
         25    2    1    2    0    0  0.00000000000E+00 -0.88817841970E-15 -0.95343136763E+03  0.96159064354E+03  0.12500077182E+03 0.  0.
    9000006    2    3    3    0    0  0.15832709360E+02 -0.73125935928E+01 -0.48807481578E+03  0.49205809339E+03  0.59999939690E+02 0.  0.
    9000007    2    3    3    0    0 -0.15832709360E+02  0.73125935928E+01 -0.46535655185E+03  0.46953255014E+03  0.59999554871E+02 0.  0.
          5    1    4    4  501    0  0.17913889255E+02  0.20015924130E+02 -0.35836269895E+03  0.35939874603E+03  0.47000000000E+01 0.  1.
         -5    1    4    4    0  501 -0.20811798948E+01 -0.27328517723E+02 -0.12971211683E+03  0.13265934736E+03  0.47000000000E+01 0.  1.
         12    1    5    5    0    0 -0.37610181892E+02 -0.10885794461E+01 -0.23455668637E+03  0.23755536178E+03  0.00000000000E+00 0. -1.
        -12    1    5    5    0    0  0.21777472531E+02  0.84011730390E+01 -0.23079986547E+03  0.23197718836E+03  0.00000000000E+00 0. -1.
<mgrwt>
<rscale>  0 0.12500077E+03</rscale>
<asrwt>0</asrwt>
<pdfrwt beam="1">  1       21 0.62763684E-03 0.12500077E+03</pdfrwt>
<pdfrwt beam="2">  1       21 0.14730933E+00 0.12500077E+03</pdfrwt>
<totfact> 0.24603166E+06</totfact>
</mgrwt>
</event>
<event>
 9    1  0.4541185E-002  0.1249952E+03  0.7818608E-02  0.1235077E+00
         21   -1    0    0  503  502  0.00000000000E+00  0.00000000000E+00  0.49007196382E+02  0.49007196382E+02  0.00000000000E+00 0.  1.
         21   -1    0    0  502  503 -0.00000000000E+00 -0.00000000000E+00 -0.79701509195E+02  0.79701509195E+02  0.00000000000E+00 0.  1.
         25    2    1    2    0    0  0.00000000000E+00  0.35527136788E-14 -0.30694312813E+02  0.12870870558E+03  0.12499516011E+03 0.  0.
    9000006    2    3    3    0    0  0.12103846787E+02  0.35050946159E+01 -0.28466847913E+01  0.61373879631E+02  0.59998839084E+02 0.  0.
    9000007    2    3    3    0    0 -0.12103846787E+02 -0.35050946159E+01 -0.27847628022E+02  0.67334825945E+02  0.59997496642E+02 0.  0.
          5    1    4    4  501    0  0.34173151274E+02 -0.87463279631E+01 -0.28225375048E+01  0.35698168563E+02  0.47000000000E+01 0. -1.
         -5    1    4    4    0  501 -0.22069304487E+02  0.12251422579E+02 -0.24147286498E-01  0.25675711068E+02  0.47000000000E+01 0. -1.
         12    1    5    5    0    0 -0.74364256813E+01  0.25862457211E+02 -0.46936727163E+00  0.26914446410E+02  0.00000000000E+00 0.  1.
        -12    1    5    5    0    0 -0.46674211053E+01 -0.29367551827E+02 -0.27378260750E+02  0.40420379536E+02  0.00000000000E+00 0.  1.
<mgrwt>
<rscale>  0 0.12499516E+03</rscale>
<asrwt>0</asrwt>
<pdfrwt beam="1">  1       21 0.75395686E-02 0.12499516E+03</pdfrwt>
<pdfrwt beam="2">  1       21 0.12261771E-01 0.12499516E+03</pdfrwt>
<totfact> 0.73547120E+06</totfact>
</mgrwt>
</event>
<event>
 9    1  0.4541185E-002  0.1249996E+03  0.7818608E-02  0.1235070E+00
         21   -1    0    0  503  502  0.00000000000E+00  0.00000000000E+00  0.13012443075E+04  0.13012443075E+04  0.00000000000E+00 0. -1.
         21   -1    0    0  502  503 -0.00000000000E+00 -0.00000000000E+00 -0.30019141263E+01  0.30019141263E+01  0.00000000000E+00 0. -1.
         25    2    1    2    0    0 -0.35527136788E-14  0.00000000000E+00  0.12982423934E+04  0.13042462217E+04  0.12499957870E+03 0.  0.
    9000006    2    3    3    0    0 -0.14985594188E+02  0.59484728824E+01  0.72007010602E+03  0.72274535437E+03  0.59999477638E+02 0.  0.
    9000007    2    3    3    0    0  0.14985594188E+02 -0.59484728824E+01  0.57817228739E+03  0.58150086729E+03  0.60000936606E+02 0.  0.
          5    1    4    4  501    0 -0.32687046654E+02 -0.79320941482E+01  0.56061580799E+03  0.56164360167E+03  0.47000000000E+01 0.  1.
         -5    1    4    4    0  501  0.17701452466E+02  0.13880567031E+02  0.15945429804E+03  0.16110175270E+03  0.47000000000E+01 0.  1.
         12    1    5    5    0    0 -0.26022496194E+01  0.35111283116E+01  0.17102965232E+01  0.46930628910E+01  0.00000000000E+00 0.  1.
        -12    1    5    5    0    0  0.17587843807E+02 -0.94596011940E+01  0.57646199087E+03  0.57680780440E+03  0.00000000000E+00 0.  1.
<mgrwt>
<rscale>  0 0.12499958E+03</rscale>
<asrwt>0</asrwt>
<pdfrwt beam="1">  1       21 0.20019098E+00 0.12499958E+03</pdfrwt>
<pdfrwt beam="2">  1       21 0.46183398E-03 0.12499958E+03</pdfrwt>
<totfact> 0.17176498E+06</totfact>
</mgrwt>
</event>
<event>
 9    1  0.4541185E-002  0.1249990E+03  0.7818608E-02  0.1235071E+00
         21   -1    0    0  503  502  0.00000000000E+00  0.00000000000E+00  0.28709268330E+03  0.28709268330E+03  0.00000000000E+00 0.  1.
         21   -1    0    0  502  503 -0.00000000000E+00 -0.00000000000E+00 -0.13606025965E+02  0.13606025965E+02  0.00000000000E+00 0.  1.
         25    2    1    2    0    0  0.17763568394E-14 -0.88817841970E-15  0.27348665734E+03  0.30069870927E+03  0.12499904805E+03 0.  0.
    9000006    2    3    3    0    0  0.57631587763E+01  0.44497120750E+00  0.97007297606E+02  0.11420926588E+03  0.59999405204E+02 0.  0.
    9000007    2    3    3    0    0 -0.57631587763E+01 -0.44497120750E+00  0.17647935973E+03  0.18648944339E+03  0.59999467383E+02 0.  0.
          5    1    4    4  501    0  0.17732802797E+02  0.50057952832E+01  0.30408369673E+01  0.19257387437E+02  0.47000000000E+01 0. -1.
         -5    1    4    4    0  501 -0.11969644021E+02 -0.45608240757E+01  0.93966460639E+02  0.94951878440E+02  0.47000000000E+01 0. -1.
         12    1    5    5    0    0 -0.18068741175E+02  0.14668796326E+02  0.26583310038E+02  0.35331648219E+02  0.00000000000E+00 0.  1.
        -12    1    5    5    0    0  0.12305582399E+02 -0.15113767534E+02  0.14989604969E+03  0.15115779517E+03  0.00000000000E+00 0.  1.
<mgrwt>
<rscale>  0 0.12499905E+03</rscale>
<asrwt>0</asrwt>
<pdfrwt beam="1">  1       21 0.44168101E-01 0.12499905E+03</pdfrwt>
<pdfrwt beam="2">  1       21 0.20932350E-02 0.12499905E+03</pdfrwt>
<totfact> 0.55399485E+06</totfact>
</mgrwt>
</event>
<event>
 9    1  0.4541185E-002  0.1250030E+03  0.7818608E-02  0.1235065E+00
         21   -1    0    0  503  502  0.00000000000E+00  0.00000000000E+00  0.59022284127E+02  0.59022284127E+02  0.00000000000E+00 0.  1.
         21   -1    0    0  502  503 -0.00000000000E+00 -0.00000000000E+00 -0.66185825014E+02  0.66185825014E+02  0.00000000000E+00 0.  1.
         25    2    1    2    0    0  0.00000000000E+00  0.35527136788E-14 -0.71635408865E+01  0.12520810914E+03  0.12500301707E+03 0.  0.
    9000006    2    3    3    0    0  0.14905315752E+02  0.40384409588E+01 -0.11834408118E+02  0.63075461344E+02  0.59999859710E+02 0.  0.
    9000007    2    3    3    0    0 -0.14905315752E+02 -0.40384409588E+01  0.46708672312E+01  0.62132647797E+02  0.60001428971E+02 0.  0.
          5    1    4    4  501    0 -0.83162015088E+01 -0.21859051254E+02  0.46389675555E+01  0.24302002988E+02  0.47000000000E+01 0. -1.
         -5    1    4    4    0  501  0.23221517261E+02  0.25897492213E+02 -0.16473375673E+02  0.38773458356E+02  0.47000000000E+01 0. -1.
         12    1    5    5    0    0 -0.28885425298E+02  0.18521793786E+02  0.84117669496E+01  0.35329625853E+02  0.00000000000E+00 0.  1.
        -12    1    5    5    0    0  0.13980109546E+02 -0.22560234745E+02 -0.37408997185E+01  0.26803021944E+02  0.00000000000E+00 0.  1.
<mgrwt>
<rscale>  0 0.12500302E+03</rscale>
<asrwt>0</asrwt>
<pdfrwt beam="1">  1       21 0.90803514E-02 0.12500302E+03</pdfrwt>
<pdfrwt beam="2">  1       21 0.10182435E-01 0.12500302E+03</pdfrwt>
<totfact> 0.74009768E+06</totfact>
</mgrwt>
</event>
<event>
 9    1  0.4541185E-002  0.1250015E+03  0.7818608E-02  0.1235067E+00
         21   -1    0    0  503  502  0.00000000000E+00  0.00000000000E+00  0.58363990707E+02  0.58363990707E+02  0.00000000000E+00 0. -1.
         21   -1    0    0  502  503 -0.00000000000E+00 -0.00000000000E+00 -0.66930761129E+02  0.66930761129E+02  0.00000000000E+00 0. -1.
         25    2    1    2    0    0  0.00000000000E+00  0.00000000000E+00 -0.85667704223E+01  0.12529475184E+03  0.12500154112E+03 0.  0.
    9000006    2    3    3    0    0 -0.60830871578E+01 -0.86308647033E+01  0.97093321953E+01  0.61690939090E+02  0.60000042160E+02 0.  0.
    9000007    2    3    3    0    0  0.60830871578E+01  0.86308647033E+01 -0.18276102618E+02  0.63603812746E+02  0.59999444115E+02 0.  0.
          5    1    4    4  501    0 -0.21846692205E+01 -0.76498135170E+01  0.34719168211E+02  0.35927747879E+02  0.47000000000E+01 0. -1.
         -5    1    4    4    0  501 -0.38984179373E+01 -0.98105118636E+00 -0.25009836015E+02  0.25763191211E+02  0.47000000000E+01 0. -1.
         12    1    5    5    0    0  0.29256625178E+02  0.27491439799E+01 -0.25202165209E+02  0.38712492049E+02  0.00000000000E+00 0. -1.
        -12    1    5    5    0    0 -0.23173538020E+02  0.58817207234E+01  0.69260625911E+01  0.24891320697E+02  0.00000000000E+00 0. -1.
<mgrwt>
<rscale>  0 0.12500154E+03</rscale>
<asrwt>0</asrwt>
<pdfrwt beam="1">  1       21 0.89790755E-02 0.12500154E+03</pdfrwt>
<pdfrwt beam="2">  1       21 0.10297040E-01 0.12500154E+03</pdfrwt>
<totfact> 0.74000864E+06</totfact>
</mgrwt>
</event>
<event>
 9    1  0.4541185E-002  0.1250018E+03  0.7818608E-02  0.1235066E+00
         21   -1    0    0  503  502  0.00000000000E+00  0.00000000000E+00  0.17074343274E+03  0.17074343274E+03  0.00000000000E+00 0.  1.
         21   -1    0    0  502  503 -0.00000000000E+00 -0.00000000000E+00 -0.22878547034E+02  0.22878547034E+02  0.00000000000E+00 0.  1.
         25    2    1    2    0    0  0.26645352591E-14  0.17763568394E-14  0.14786488571E+03  0.19362197978E+03  0.12500178649E+03 0.  0.
    9000006    2    3    3    0    0  0.40916411395E+01  0.15253502885E+02  0.85629001882E+02  0.10574361911E+03  0.59999801174E+02 0.  0.
    9000007    2    3    3    0    0 -0.40916411395E+01 -0.15253502885E+02  0.62235883828E+02  0.87878360671E+02  0.59999084667E+02 0.  0.
          5    1    4    4  501    0  0.12089956502E+01  0.12808892973E+02 -0.52467720057E+01  0.14667925080E+02  0.47000000000E+01 0. -1.
         -5    1    4    4    0  501  0.28826454893E+01  0.24446099122E+01  0.90875773888E+02  0.91075694026E+02  0.47000000000E+01 0. -1.
         12    1    5    5    0    0  0.20847660557E+02 -0.27167239001E+02  0.31292598471E+02  0.46388689836E+02  0.00000000000E+00 0. -1.
        -12    1    5    5    0    0 -0.24939301696E+02  0.11913736116E+02  0.30943285356E+02  0.41489670835E+02  0.00000000000E+00 0. -1.
<mgrwt>
<rscale>  0 0.12500179E+03</rscale>
<asrwt>0</asrwt>
<pdfrwt beam="1">  1       21 0.26268220E-01 0.12500179E+03</pdfrwt>
<pdfrwt beam="2">  1       21 0.35197766E-02 0.12500179E+03</pdfrwt>
<totfact> 0.65619189E+06</totfact>
</mgrwt>
</event>
<event>
 9    1  0.4541185E-002  0.1249982E+03  0.7818608E-02  0.1235072E+00
         21   -1    0    0  503  502  0.00000000000E+00  0.00000000000E+00  0.20475484393E+02  0.20475484393E+02  0.00000000000E+00 0.  1.
         21   -1    0    0  502  503 -0.00000000000E+00 -0.00000000000E+00 -0.19077142370E+03  0.19077142370E+03  0.00000000000E+00 0.  1.
         25    2    1    2    0    0  0.71054273576E-14  0.17763568394E-14 -0.17029593931E+03  0.21124690809E+03  0.12499819693E+03 0.  0.
    9000006    2    3    3    0    0  0.11800700465E+02 -0.12127432278E+02 -0.92678546901E+02  0.11169416695E+03  0.59999522747E+02 0.  0.
    9000007    2    3    3    0    0 -0.11800700465E+02  0.12127432278E+02 -0.77617392407E+02  0.99552741144E+02  0.59999646000E+02 0.  0.
          5    1    4    4  501    0  0.11990890568E+02 -0.21055239788E+02 -0.97453359156E+02  0.10053035258E+03  0.47000000000E+01 0.  1.
         -5    1    4    4    0  501 -0.19019010329E+00  0.89278075102E+01  0.47748122548E+01  0.11163814370E+02  0.47000000000E+01 0.  1.
         12    1    5    5    0    0 -0.35717185450E+02  0.11910913025E+02 -0.54868737398E+02  0.66544462799E+02  0.00000000000E+00 0.  1.
        -12    1    5    5    0    0  0.23916484985E+02  0.21651925319E+00 -0.22748655009E+02  0.33008278345E+02  0.00000000000E+00 0.  1.
<mgrwt>
<rscale>  0 0.12499820E+03</rscale>
<asrwt>0</asrwt>
<pdfrwt beam="1">  1       21 0.31500744E-02 0.12499820E+03</pdfrwt>
<pdfrwt beam="2">  1       21 0.29349451E-01 0.12499820E+03</pdfrwt>
<totfact> 0.63731491E+06</totfact>
</mgrwt>
</event>
<event>
 9    1  0.4541185E-002  0.1249936E+03  0.7818608E-02  0.1235079E+00
         21   -1    0    0  503  502  0.00000000000E+00  0.00000000000E+00  0.10249600050E+03  0.10249600050E+03  0.00000000000E+00 0. -1.
         21   -1    0    0  502  503 -0.00000000000E+00 -0.00000000000E+00 -0.38107347998E+02  0.38107347998E+02  0.00000000000E+00 0. -1.
         25    2    1    2    0    0 -0.35527136788E-14  0.00000000000E+00  0.64388652501E+02  0.14060334850E+03  0.12499361199E+03 0.  0.
    9000006    2    3    3    0    0  0.87037954173E+01  0.44740434530E+01  0.15890882254E+02  0.62835426739E+02  0.59999979960E+02 0.  0.
    9000007    2    3    3    0    0 -0.87037954173E+01 -0.44740434530E+01  0.48497770246E+02  0.77767921758E+02  0.60000356801E+02 0.  0.
          5    1    4    4  501    0 -0.13546240006E+02 -0.20189874988E+02  0.15635843009E+02  0.29286537127E+02  0.47000000000E+01 0. -1.
         -5    1    4    4    0  501  0.22250035423E+02  0.24663918441E+02  0.25503924583E+00  0.33548889612E+02  0.47000000000E+01 0. -1.
         12    1    5    5    0    0  0.33779809902E+01  0.21612096205E+02  0.57303234783E+00  0.21881997716E+02  0.00000000000E+00 0. -1.
        -12    1    5    5    0    0 -0.12081776408E+02 -0.26086139659E+02  0.47924737898E+02  0.55885924042E+02  0.00000000000E+00 0. -1.
<mgrwt>
<rscale>  0 0.12499361E+03</rscale>
<asrwt>0</asrwt>
<pdfrwt beam="1">  1       21 0.15768615E-01 0.12499361E+03</pdfrwt>
<pdfrwt beam="2">  1       21 0.58626690E-02 0.12499361E+03</pdfrwt>
<totfact> 0.71972352E+06</totfact>
</mgrwt>
</event>
<event>
 9    1  0.4541185E-002  0.1249964E+03  0.7818608E-02  0.1235075E+00
         21   -1    0    0  503  502  0.00000000000E+00  0.00000000000E+00  0.42180213220E+02  0.42180213220E+02  0.00000000000E+00 0.  1.
         21   -1    0    0  502  503 -0.00000000000E+00 -0.00000000000E+00 -0.92603186999E+02  0.92603186999E+02  0.00000000000E+00 0.  1.
         25    2    1    2    0    0  0.17763568394E-14  0.00000000000E+00 -0.50422973779E+02  0.13478340022E+03  0.12499635471E+03 0.  0.
    9000006    2    3    3    0    0 -0.11807302221E+02 -0.48119751587E+01 -0.12292665595E+02  0.62557778295E+02  0.59998320869E+02 0.  0.
    9000007    2    3    3    0    0  0.11807302221E+02  0.48119751587E+01 -0.38130308184E+02  0.72225621924E+02  0.60000438077E+02 0.  0.
          5    1    4    4  501    0 -0.11568825014E+02 -0.18079681344E+02  0.18484552878E+02  0.28713782140E+02  0.47000000000E+01 0. -1.
         -5    1    4    4    0  501 -0.23847720748E+00  0.13267706185E+02 -0.30777218473E+02  0.33843996155E+02  0.47000000000E+01 0. -1.
         12    1    5    5    0    0 -0.17461644159E+02  0.51607540456E+01 -0.38893452540E+02  0.42944651000E+02  0.00000000000E+00 0.  1.
        -12    1    5    5    0    0  0.29268946381E+02 -0.34877888690E+00  0.76314435588E+00  0.29280970924E+02  0.00000000000E+00 0.  1.
<mgrwt>
<rscale>  0 0.12499635E+03</rscale>
<asrwt>0</asrwt>
<pdfrwt beam="1">  1       21 0.64892637E-02 0.12499635E+03</pdfrwt>
<pdfrwt beam="2">  1       21 0.14246644E-01 0.12499635E+03</pdfrwt>
<totfact> 0.72731926E+06</totfact>
</mgrwt>
</event>
<event>
 9    1  0.4541185E-002  0.1249990E+03  0.7818608E-02  0.1235071E+00
         21   -1    0    0  503  502  0.00000000000E+00  0.00000000000E+00  0.15924395379E+02  0.15924395379E+02  0.00000000000E+00 0.  1.
         21   -1    0    0  502  503 -0.00000000000E+00 -0.00000000000E+00 -0.24529594885E+03  0.24529594885E+03  0.00000000000E+00 0.  1.
         25    2    1    2    0    0  0.00000000000E+00  0.00000000000E+00 -0.22937155347E+03  0.26122034423E+03  0.12499903479E+03 0.  0.
    9000006    2    3    3    0    0  0.11922299475E+02  0.95554033089E+01 -0.13250449733E+03  0.14625606890E+03  0.59999574332E+02 0.  0.
    9000007    2    3    3    0    0 -0.11922299475E+02 -0.95554033089E+01 -0.96867056136E+02  0.11496427533E+03  0.60000925655E+02 0.  0.
          5    1    4    4  501    0  0.44674001256E+01  0.19844707140E+02 -0.13096816026E+03  0.13262171416E+03  0.47000000000E+01 0. -1.
         -5    1    4    4    0  501  0.74548993492E+01 -0.10289303831E+02 -0.15363370757E+01  0.13634354743E+02  0.47000000000E+01 0. -1.
         12    1    5    5    0    0  0.58812668138E+01 -0.21092422813E+02 -0.90060493075E+02  0.92684259788E+02  0.00000000000E+00 0.  1.
        -12    1    5    5    0    0 -0.17803566289E+02  0.11537019505E+02 -0.68065630610E+01  0.22280015537E+02  0.00000000000E+00 0.  1.
<mgrwt>
<rscale>  0 0.12499903E+03</rscale>
<asrwt>0</asrwt>
<pdfrwt beam="1">  1       21 0.24499069E-02 0.12499903E+03</pdfrwt>
<pdfrwt beam="2">  1       21 0.37737839E-01 0.12499903E+03</pdfrwt>
<totfact> 0.58839030E+06</totfact>
</mgrwt>
</event>
<event>
 9    1  0.4541185E-002  0.1249990E+03  0.7818608E-02  0.1235071E+00
         21   -1    0    0  503  502  0.00000000000E+00  0.00000000000E+00  0.39976939037E+02  0.39976939037E+02  0.00000000000E+00 0. -1.
         21   -1    0    0  502  503 -0.00000000000E+00 -0.00000000000E+00 -0.97710973959E+02  0.97710973959E+02  0.00000000000E+00 0. -1.
         25    2    1    2    0    0  0.00000000000E+00 -0.17763568394E-14 -0.57734034922E+02  0.13768791300E+03  0.12499897038E+03 0.  0.
    9000006    2    3    3    0    0 -0.65644271297E+01  0.81697352593E+01 -0.44300229865E+02  0.75315094267E+02  0.60000139839E+02 0.  0.
    9000007    2    3    3    0    0  0.65644271297E+01 -0.81697352593E+01 -0.13433805057E+02  0.62372818728E+02  0.60000542665E+02 0.  0.
          5    1    4    4  501    0  0.91509978857E+00  0.70556775446E+01  0.13970975071E+02  0.16367594132E+02  0.47000000000E+01 0. -1.
         -5    1    4    4    0  501 -0.74795269183E+01  0.11140577148E+01 -0.58271204936E+02  0.58947500135E+02  0.47000000000E+01 0. -1.
         12    1    5    5    0    0  0.66245680322E+01 -0.20119382446E+02 -0.33137313467E+02  0.39328818892E+02  0.00000000000E+00 0. -1.
        -12    1    5    5    0    0 -0.60140902496E-01  0.11949647187E+02  0.19703508410E+02  0.23043999837E+02  0.00000000000E+00 0. -1.
<mgrwt>
<rscale>  0 0.12499897E+03</rscale>
<asrwt>0</asrwt>
<pdfrwt beam="1">  1       21 0.61502983E-02 0.12499897E+03</pdfrwt>
<pdfrwt beam="2">  1       21 0.15032458E-01 0.12499897E+03</pdfrwt>
<totfact> 0.72344390E+06</totfact>
</mgrwt>
</event>
<event>
 9    1  0.4541185E-002  0.1249998E+03  0.7818608E-02  0.1235070E+00
         21   -1    0    0  503  502  0.00000000000E+00  0.00000000000E+00  0.18816959824E+02  0.18816959824E+02  0.00000000000E+00 0. -1.
         21   -1    0    0  502  503 -0.00000000000E+00 -0.00000000000E+00 -0.20759133828E+03  0.20759133828E+03  0.00000000000E+00 0. -1.
         25    2    1    2    0    0 -0.88817841970E-15  0.00000000000E+00 -0.18877437845E+03  0.22640829810E+03  0.12499980595E+03 0.  0.
    9000006    2    3    3    0    0  0.16479377089E+00 -0.43808892230E+01 -0.12507691635E+03  0.13879280229E+03  0.59999896797E+02 0.  0.
    9000007    2    3    3    0    0 -0.16479377089E+00  0.43808892230E+01 -0.63697462096E+02  0.87615495808E+02  0.59999075666E+02 0.  0.
          5    1    4    4  501    0  0.44271550598E+01 -0.82189562278E+01  0.27047596691E+01  0.10796141360E+02  0.47000000000E+01 0.  1.
         -5    1    4    4    0  501 -0.42623612889E+01  0.38380670048E+01 -0.12778167602E+03  0.12799666093E+03  0.47000000000E+01 0.  1.
         12    1    5    5    0    0 -0.21407581799E+02 -0.37075498641E+01 -0.60965770365E+02  0.64721369274E+02  0.00000000000E+00 0. -1.
        -12    1    5    5    0    0  0.21242788028E+02  0.80884390871E+01 -0.27316917313E+01  0.22894126534E+02  0.00000000000E+00 0. -1.
<mgrwt>
<rscale>  0 0.12499981E+03</rscale>
<asrwt>0</asrwt>
<pdfrwt beam="1">  1       21 0.28949172E-02 0.12499981E+03</pdfrwt>
<pdfrwt beam="2">  1       21 0.31937126E-01 0.12499981E+03</pdfrwt>
<totfact> 0.62173549E+06</totfact>
</mgrwt>
</event>
<event>
 9    1  0.4541185E-002  0.1249911E+03  0.7818608E-02  0.1235083E+00
         21   -1    0    0  503  502  0.00000000000E+00  0.00000000000E+00  0.36396727683E+01  0.36396727683E+01  0.00000000000E+00 0. -1.
         21   -1    0    0  502  503 -0.00000000000E+00 -0.00000000000E+00 -0.10730901172E+04  0.10730901172E+04  0.00000000000E+00 0. -1.
         25    2    1    2    0    0  0.17763568394E-14  0.17763568394E-14 -0.10694504445E+04  0.10767297900E+04  0.12499114973E+03 0.  0.
    9000006    2    3    3    0    0 -0.91005360887E+01 -0.14829980337E+02 -0.54947052940E+03  0.55301048297E+03  0.59999862716E+02 0.  0.
    9000007    2    3    3    0    0  0.91005360887E+01  0.14829980337E+02 -0.51997991507E+03  0.52371930703E+03  0.60000436738E+02 0.  0.
          5    1    4    4  501    0 -0.15102432218E+02 -0.40880219542E+01 -0.37907325644E+02  0.41277726680E+02  0.47000000000E+01 0. -1.
         -5    1    4    4    0  501  0.60018961289E+01 -0.10741958382E+02 -0.51156320375E+03  0.51173275629E+03  0.47000000000E+01 0. -1.
         12    1    5    5    0    0 -0.22928211804E+02 -0.66076005289E+01 -0.21101539552E+03  0.21236021385E+03  0.00000000000E+00 0. -1.
        -12    1    5    5    0    0  0.32028747892E+02  0.21437580865E+02 -0.30896451955E+03  0.31135909318E+03  0.00000000000E+00 0. -1.
<mgrwt>
<rscale>  0 0.12499115E+03</rscale>
<asrwt>0</asrwt>
<pdfrwt beam="1">  1       21 0.55994940E-03 0.12499115E+03</pdfrwt>
<pdfrwt beam="2">  1       21 0.16509086E+00 0.12499115E+03</pdfrwt>
<totfact> 0.21781256E+06</totfact>
</mgrwt>
</event>
<event>
 9    1  0.4541185E-002  0.1250075E+03  0.7818608E-02  0.1235058E+00
         21   -1    0    0  503  502  0.00000000000E+00  0.00000000000E+00  0.14022666995E+03  0.14022666995E+03  0.00000000000E+00 0. -1.
         21   -1    0    0  502  503 -0.00000000000E+00 -0.00000000000E+00 -0.27860012227E+02  0.27860012227E+02  0.00000000000E+00 0. -1.
         25    2    1    2    0    0 -0.35527136788E-14  0.00000000000E+00  0.11236665772E+03  0.16808668218E+03  0.12500746761E+03 0.  0.
    9000006    2    3    3    0    0  0.88158468535E+01 -0.14759395735E+02  0.60684323369E+02  0.87052915027E+02  0.60000533279E+02 0.  0.
    9000007    2    3    3    0    0 -0.88158468535E+01  0.14759395735E+02  0.51682334354E+02  0.81033767150E+02  0.59998740121E+02 0.  0.
          5    1    4    4  501    0 -0.74466162478E+01 -0.14379144441E+02 -0.62710968573E+01  0.17989678824E+02  0.47000000000E+01 0. -1.
         -5    1    4    4    0  501  0.16262463101E+02 -0.38025129353E+00  0.66955420226E+02  0.69063236203E+02  0.47000000000E+01 0. -1.
         12    1    5    5    0    0 -0.32767911456E+02  0.89352095177E+01  0.15699037807E+02  0.37417025248E+02  0.00000000000E+00 0. -1.
        -12    1    5    5    0    0  0.23952064603E+02  0.58241862171E+01  0.35983296547E+02  0.43616741903E+02  0.00000000000E+00 0. -1.
<mgrwt>
<rscale>  0 0.12500747E+03</rscale>
<asrwt>0</asrwt>
<pdfrwt beam="1">  1       21 0.21573333E-01 0.12500747E+03</pdfrwt>
<pdfrwt beam="2">  1       21 0.42861558E-02 0.12500747E+03</pdfrwt>
<totfact> 0.68531641E+06</totfact>
</mgrwt>
</event>
<event>
 9    1  0.4541185E-002  0.1250022E+03  0.7818608E-02  0.1235066E+00
         21   -1    0    0  503  502  0.00000000000E+00  0.00000000000E+00  0.11769908719E+03  0.11769908719E+03  0.00000000000E+00 0. -1.
         21   -1    0    0  502  503 -0.00000000000E+00 -0.00000000000E+00 -0.33189616236E+02  0.33189616236E+02  0.00000000000E+00 0. -1.
         25    2    1    2    0    0  0.00000000000E+00  0.88817841970E-15  0.84509470950E+02  0.15088870342E+03  0.12500220054E+03 0.  0.
    9000006    2    3    3    0    0 -0.76508772615E+01 -0.70072813400E+01  0.25233992540E+02  0.65910618663E+02  0.59998477967E+02 0.  0.
    9000007    2    3    3    0    0  0.76508772615E+01  0.70072813400E+01  0.59275478411E+02  0.84978084760E+02  0.60000455282E+02 0.  0.
          5    1    4    4  501    0 -0.28744941972E+02 -0.69975824426E+01 -0.32774606317E+01  0.30134193156E+02  0.47000000000E+01 0. -1.
         -5    1    4    4    0  501  0.21094064710E+02 -0.96988974099E-02  0.28511453172E+02  0.35776425507E+02  0.47000000000E+01 0. -1.
         12    1    5    5    0    0  0.17270541260E+02 -0.23238137779E+02  0.31718289282E+02  0.42945692658E+02  0.00000000000E+00 0. -1.
        -12    1    5    5    0    0 -0.96196639988E+01  0.30245419119E+02  0.27557189128E+02  0.42032392102E+02  0.00000000000E+00 0. -1.
<mgrwt>
<rscale>  0 0.12500220E+03</rscale>
<asrwt>0</asrwt>
<pdfrwt beam="1">  1       21 0.18107552E-01 0.12500220E+03</pdfrwt>
<pdfrwt beam="2">  1       21 0.51060949E-02 0.12500220E+03</pdfrwt>
<totfact> 0.70643785E+06</totfact>
</mgrwt>
</event>
<event>
 9    1  0.4541185E-002  0.1249994E+03  0.7818608E-02  0.1235070E+00
         21   -1    0    0  503  502  0.00000000000E+00  0.00000000000E+00  0.80218934572E+01  0.80218934572E+01  0.00000000000E+00 0. -1.
         21   -1    0    0  502  503 -0.00000000000E+00 -0.00000000000E+00 -0.48694365705E+03  0.48694365705E+03  0.00000000000E+00 0. -1.
         25    2    1    2    0    0  0.00000000000E+00 -0.17763568394E-14 -0.47892176359E+03  0.49496555051E+03  0.12499936218E+03 0.  0.
    9000006    2    3    3    0    0  0.11498676394E+02  0.12586970611E+02 -0.25507442657E+03  0.26259009003E+03  0.59999507535E+02 0.  0.
    9000007    2    3    3    0    0 -0.11498676394E+02 -0.12586970611E+02 -0.22384733703E+03  0.23237546048E+03  0.60000607926E+02 0.  0.
          5    1    4    4  501    0 -0.10584769062E+02 -0.45691138234E+01 -0.10243417049E+02  0.16122398397E+02  0.47000000000E+01 0.  1.
         -5    1    4    4    0  501  0.22083445456E+02  0.17156084434E+02 -0.24483100952E+03  0.24646769163E+03  0.47000000000E+01 0.  1.
         12    1    5    5    0    0 -0.15152803631E+02  0.20016985807E+02 -0.14191550577E+03  0.14411904093E+03  0.00000000000E+00 0.  1.
        -12    1    5    5    0    0  0.36541272375E+01 -0.32603956417E+02 -0.81931831256E+02  0.88256419556E+02  0.00000000000E+00 0.  1.
<mgrwt>
<rscale>  0 0.12499936E+03</rscale>
<asrwt>0</asrwt>
<pdfrwt beam="1">  1       21 0.12341369E-02 0.12499936E+03</pdfrwt>
<pdfrwt beam="2">  1       21 0.74914444E-01 0.12499936E+03</pdfrwt>
<totfact> 0.42319082E+06</totfact>
</mgrwt>
</event>
<event>
 9    1  0.4541185E-002  0.1250070E+03  0.7818608E-02  0.1235058E+00
         21   -1    0    0  503  502  0.00000000000E+00  0.00000000000E+00  0.60137815716E+02  0.60137815716E+02  0.00000000000E+00 0. -1.
         21   -1    0    0  502  503 -0.00000000000E+00 -0.00000000000E+00 -0.64962193110E+02  0.64962193110E+02  0.00000000000E+00 0. -1.
         25    2    1    2    0    0  0.00000000000E+00  0.00000000000E+00 -0.48243773939E+01  0.12510000883E+03  0.12500695017E+03 0.  0.
    9000006    2    3    3    0    0 -0.98278637508E+01 -0.45686900558E+01  0.11353985515E+02  0.62019251476E+02  0.60000122765E+02 0.  0.
    9000007    2    3    3    0    0  0.98278637508E+01  0.45686900558E+01 -0.16178362909E+02  0.63080757351E+02  0.59999855723E+02 0.  0.
          5    1    4    4  501    0  0.18988629248E+02 -0.12294429900E+02 -0.98506183675E+01  0.25116642480E+02  0.47000000000E+01 0. -1.
         -5    1    4    4    0  501 -0.28816492998E+02  0.77257398441E+01  0.21204603882E+02  0.36902608995E+02  0.47000000000E+01 0. -1.
         12    1    5    5    0    0 -0.19606544489E+02  0.11771756621E+02  0.80900415917E+01  0.24257774295E+02  0.00000000000E+00 0. -1.
        -12    1    5    5    0    0  0.29434408240E+02 -0.72030665656E+01 -0.24268404501E+02  0.38822983056E+02  0.00000000000E+00 0. -1.
<mgrwt>
<rscale>  0 0.12500695E+03</rscale>
<asrwt>0</asrwt>
<pdfrwt beam="1">  1       21 0.92519717E-02 0.12500695E+03</pdfrwt>
<pdfrwt beam="2">  1       21 0.99941835E-02 0.12500695E+03</pdfrwt>
<totfact> 0.74016921E+06</totfact>
</mgrwt>
</event>
<event>
 9    1  0.4541185E-002  0.1249984E+03  0.7818608E-02  0.1235072E+00
         21   -1    0    0  503  502  0.00000000000E+00  0.00000000000E+00  0.79315153989E+02  0.79315153989E+02  0.00000000000E+00 0.  1.
         21   -1    0    0  502  503 -0.00000000000E+00 -0.00000000000E+00 -0.49248465817E+02  0.49248465817E+02  0.00000000000E+00 0.  1.
         25    2    1    2    0    0  0.00000000000E+00  0.00000000000E+00  0.30066688171E+02  0.12856361981E+03  0.12499839439E+03 0.  0.
    9000006    2    3    3    0    0  0.14381423318E+02 -0.69842185096E+01  0.22341657682E+02  0.65991025241E+02  0.60000509161E+02 0.  0.
    9000007    2    3    3    0    0 -0.14381423318E+02  0.69842185096E+01  0.77250304894E+01  0.62572594565E+02  0.60000407079E+02 0.  0.
          5    1    4    4  501    0  0.11614628365E+02  0.18123306149E+02  0.31735966542E+02  0.38634380934E+02  0.47000000000E+01 0.  1.
         -5    1    4    4    0  501  0.27667949538E+01 -0.25107524659E+02 -0.93943088597E+01  0.27356644307E+02  0.47000000000E+01 0.  1.
         12    1    5    5    0    0 -0.20593985373E+02  0.30761891674E+02  0.85085627735E+01  0.37984231641E+02  0.00000000000E+00 0. -1.
        -12    1    5    5    0    0  0.62125620549E+01 -0.23777673164E+02 -0.78353228413E+00  0.24588362923E+02  0.00000000000E+00 0. -1.
<mgrwt>
<rscale>  0 0.12499839E+03</rscale>
<asrwt>0</asrwt>
<pdfrwt beam="1">  1       21 0.12202331E-01 0.12499839E+03</pdfrwt>
<pdfrwt beam="2">  1       21 0.75766870E-02 0.12499839E+03</pdfrwt>
<totfact> 0.73560571E+06</totfact>
</mgrwt>
</event>
<event>
 9    1  0.4541185E-002  0.1250071E+03  0.7818608E-02  0.1235058E+00
         21   -1    0    0  503  502  0.00000000000E+00  0.00000000000E+00  0.51606334326E+01  0.51606334326E+01  0.00000000000E+00 0. -1.
         21   -1    0    0  502  503 -0.00000000000E+00 -0.00000000000E+00 -0.75701860367E+03  0.75701860367E+03  0.00000000000E+00 0. -1.
         25    2    1    2    0    0  0.35527136788E-14  0.35527136788E-14 -0.75185797024E+03  0.76217923710E+03  0.12500712804E+03 0.  0.
    9000006    2    3    3    0    0 -0.96069273429E+00 -0.16138272532E+02 -0.33491195258E+03  0.34062806167E+03  0.60000780373E+02 0.  0.
    9000007    2    3    3    0    0  0.96069273429E+00  0.16138272532E+02 -0.41694601766E+03  0.42155117543E+03  0.60000375810E+02 0.  0.
          5    1    4    4  501    0  0.16627802877E+02  0.18371636026E+01 -0.27414139758E+03  0.27469156315E+03  0.47000000000E+01 0.  1.
         -5    1    4    4    0  501 -0.17588495611E+02 -0.17975436135E+02 -0.60770555000E+02  0.65936498520E+02  0.47000000000E+01 0.  1.
         12    1    5    5    0    0 -0.28937490662E+02  0.18785713804E+01 -0.19958704617E+03  0.20168266261E+03  0.00000000000E+00 0.  1.
        -12    1    5    5    0    0  0.29898183396E+02  0.14259701152E+02 -0.21735897149E+03  0.21986851283E+03  0.00000000000E+00 0.  1.
<mgrwt>
<rscale>  0 0.12500713E+03</rscale>
<asrwt>0</asrwt>
<pdfrwt beam="1">  1       21 0.79394410E-03 0.12500713E+03</pdfrwt>
<pdfrwt beam="2">  1       21 0.11646433E+00 0.12500713E+03</pdfrwt>
<totfact> 0.30639665E+06</totfact>
</mgrwt>
</event>
<event>
 9    1  0.4541185E-002  0.1250002E+03  0.7818608E-02  0.1235069E+00
         21   -1    0    0  503  502  0.00000000000E+00  0.00000000000E+00  0.77308500166E+01  0.77308500166E+01  0.00000000000E+00 0.  1.
         21   -1    0    0  502  503 -0.00000000000E+00 -0.00000000000E+00 -0.50528241757E+03  0.50528241757E+03  0.00000000000E+00 0.  1.
         25    2    1    2    0    0 -0.35527136788E-14  0.00000000000E+00 -0.49755156756E+03  0.51301326759E+03  0.12500020138E+03 0.  0.
    9000006    2    3    3    0    0 -0.16067938302E+02  0.59933323961E+01 -0.23443468296E+03  0.24259791864E+03  0.60000257340E+02 0.  0.
    9000007    2    3    3    0    0  0.16067938302E+02 -0.59933323961E+01 -0.26311688459E+03  0.27041534894E+03  0.59998894254E+02 0.  0.
          5    1    4    4  501    0 -0.21635891217E+02 -0.57734854408E+01 -0.30170888458E+02  0.37865781825E+02  0.47000000000E+01 0.  1.
         -5    1    4    4    0  501  0.55679529145E+01  0.11766817837E+02 -0.20426379450E+03  0.20473213682E+03  0.47000000000E+01 0.  1.
         12    1    5    5    0    0 -0.36741486430E+01 -0.12817086126E+02 -0.23505440079E+03  0.23543225861E+03  0.00000000000E+00 0. -1.
        -12    1    5    5    0    0  0.19742086945E+02  0.68237537296E+01 -0.28062483809E+02  0.34983090335E+02  0.00000000000E+00 0. -1.
<mgrwt>
<rscale>  0 0.12500020E+03</rscale>
<asrwt>0</asrwt>
<pdfrwt beam="1">  1       21 0.11893612E-02 0.12500020E+03</pdfrwt>
<pdfrwt beam="2">  1       21 0.77735779E-01 0.12500020E+03</pdfrwt>
<totfact> 0.41346797E+06</totfact>
</mgrwt>
</event>
<event>
 9    1  0.4541185E-002  0.1250003E+03  0.7818608E-02  0.1235069E+00
         21   -1    0    0  503  502  0.00000000000E+00  0.00000000000E+00  0.13705357348E+03  0.13705357348E+03  0.00000000000E+00 0. -1.
         21   -1    0    0  502  503 -0.00000000000E+00 -0.00000000000E+00 -0.28501777783E+02  0.28501777783E+02  0.00000000000E+00 0. -1.
         25    2    1    2    0    0  0.00000000000E+00  0.35527136788E-14  0.10855179570E+03  0.16555535127E+03  0.12500032793E+03 0.  0.
    9000006    2    3    3    0    0  0.13142953275E+02  0.98142669303E+01  0.46190014601E+02  0.77475418396E+02  0.59998882911E+02 0.  0.
    9000007    2    3    3    0    0 -0.13142953275E+02 -0.98142669303E+01  0.62361781100E+02  0.88079932871E+02  0.60000214803E+02 0.  0.
          5    1    4    4  501    0  0.39642268114E+01 -0.24942942652E+02  0.15725902940E+02  0.30120748756E+02  0.47000000000E+01 0.  1.
         -5    1    4    4    0  501  0.91787264632E+01  0.34757209582E+02  0.30464111661E+02  0.47354669640E+02  0.47000000000E+01 0.  1.
         12    1    5    5    0    0 -0.20949635381E+02 -0.11153040159E+02  0.71880184306E+02  0.75697017267E+02  0.00000000000E+00 0.  1.
        -12    1    5    5    0    0  0.78066821065E+01  0.13387732284E+01 -0.95184032054E+01  0.12382915604E+02  0.00000000000E+00 0.  1.
<mgrwt>
<rscale>  0 0.12500033E+03</rscale>
<asrwt>0</asrwt>
<pdfrwt beam="1">  1       21 0.21085165E-01 0.12500033E+03</pdfrwt>
<pdfrwt beam="2">  1       21 0.43848890E-02 0.12500033E+03</pdfrwt>
<totfact> 0.68846409E+06</totfact>
</mgrwt>
</event>
<event>
 9    1  0.4541185E-002  0.1249965E+03  0.7818608E-02  0.1235075E+00
         21   -1    0    0  503  502  0.00000000000E+00  0.00000000000E+00  0.12353038915E+03  0.12353038915E+03  0.00000000000E+00 0.  1.
         21   -1    0    0  502  503 -0.00000000000E+00 -0.00000000000E+00 -0.31619986300E+02  0.31619986300E+02  0.00000000000E+00 0.  1.
         25    2    1    2    0    0  0.00000000000E+00  0.00000000000E+00  0.91910402847E+02  0.15515037545E+03  0.12499646735E+03 0.  0.
    9000006    2    3    3    0    0  0.40903090162E+01  0.46388165457E+01  0.25644051462E+02  0.65543579205E+02  0.60000784601E+02 0.  0.
    9000007    2    3    3    0    0 -0.40903090162E+01 -0.46388165457E+01  0.66266351385E+02  0.89606796243E+02  0.59999161330E+02 0.  0.
          5    1    4    4  501    0  0.19514248246E+02 -0.82772540572E+01 -0.10341737908E+02  0.24049123940E+02  0.47000000000E+01 0. -1.
         -5    1    4    4    0  501 -0.15423939229E+02  0.12916070603E+02  0.35985789370E+02  0.41494455265E+02  0.47000000000E+01 0. -1.
         12    1    5    5    0    0 -0.20560125140E+01  0.46892445990E+01  0.75883116668E+02  0.76055661181E+02  0.00000000000E+00 0. -1.
        -12    1    5    5    0    0 -0.20342965022E+01 -0.93280611447E+01 -0.96167652830E+01  0.13551135063E+02  0.00000000000E+00 0. -1.
<mgrwt>
<rscale>  0 0.12499647E+03</rscale>
<asrwt>0</asrwt>
<pdfrwt beam="1">  1       21 0.19004675E-01 0.12499647E+03</pdfrwt>
<pdfrwt beam="2">  1       21 0.48646133E-02 0.12499647E+03</pdfrwt>
<totfact> 0.70123275E+06</totfact>
</mgrwt>
</event>
<event>
 9    1  0.4541185E-002  0.1250002E+03  0.7818608E-02  0.1235069E+00
         21   -1    0    0  503  502  0.00000000000E+00  0.00000000000E+00  0.71376637156E+03  0.71376637156E+03  0.00000000000E+00 0.  1.
         21   -1    0    0  502  503 -0.00000000000E+00 -0.00000000000E+00 -0.54727435201E+01  0.54727435201E+01  0.00000000000E+00 0.  1.
         25    2    1    2    0    0  0.00000000000E+00 -0.17763568394E-14  0.70829362804E+03  0.71923911509E+03  0.12500016456E+03 0.  0.
    9000006    2    3    3    0    0 -0.16904096086E+02 -0.10959031091E+01  0.32885545764E+03  0.33471306043E+03  0.59999761125E+02 0.  0.
    9000007    2    3    3    0    0  0.16904096086E+02  0.10959031091E+01  0.37943817040E+03  0.38452605465E+03  0.60000100665E+02 0.  0.
          5    1    4    4  501    0 -0.20116853778E+02 -0.27637993160E+02  0.15889897515E+03  0.16260233940E+03  0.47000000000E+01 0.  1.
         -5    1    4    4    0  501  0.32127576922E+01  0.26542090051E+02  0.16995648249E+03  0.17211072104E+03  0.47000000000E+01 0.  1.
         12    1    5    5    0    0 -0.45371056794E+01 -0.12388460100E+02  0.18621628765E+02  0.22821575963E+02  0.00000000000E+00 0.  1.
        -12    1    5    5    0    0  0.21441201765E+02  0.13484363209E+02  0.36081654164E+03  0.36170447869E+03  0.00000000000E+00 0.  1.
<mgrwt>
<rscale>  0 0.12500016E+03</rscale>
<asrwt>0</asrwt>
<pdfrwt beam="1">  1       21 0.10981014E+00 0.12500016E+03</pdfrwt>
<pdfrwt beam="2">  1       21 0.84196111E-03 0.12500016E+03</pdfrwt>
<totfact> 0.32181368E+06</totfact>
</mgrwt>
</event>
<event>
 9    1  0.4541185E-002  0.1250021E+03  0.7818608E-02  0.1235066E+00
         21   -1    0    0  503  502  0.00000000000E+00  0.00000000000E+00  0.10451631559E+03  0.10451631559E+03  0.00000000000E+00 0. -1.
         21   -1    0    0  502  503 -0.00000000000E+00 -0.00000000000E+00 -0.37375805457E+02  0.37375805457E+02  0.00000000000E+00 0. -1.
         25    2    1    2    0    0  0.44408920985E-15  0.00000000000E+00  0.67140510137E+02  0.14189212105E+03  0.12500210364E+03 0.  0.
    9000006    2    3    3    0    0 -0.24018489090E+01  0.11758922034E+02  0.19118799171E+02  0.64105662426E+02  0.59999719563E+02 0.  0.
    9000007    2    3    3    0    0  0.24018489090E+01 -0.11758922034E+02  0.48021710966E+02  0.77786458627E+02  0.60005060586E+02 0.  0.
          5    1    4    4  501    0 -0.18057079748E+02  0.24992531310E+02  0.27387784642E+02  0.41507414975E+02  0.47000000000E+01 0.  1.
         -5    1    4    4    0  501  0.15655230839E+02 -0.13233609276E+02 -0.82689854711E+01  0.22598247450E+02  0.47000000000E+01 0.  1.
         12    1    5    5    0    0 -0.52629372839E+00 -0.19806963429E+02 -0.78130256822E+01  0.21298736012E+02  0.00000000000E+00 0.  1.
        -12    1    5    5    0    0  0.29281426374E+01  0.80480413953E+01  0.55834736649E+02  0.56487722615E+02  0.00000000000E+00 0.  1.
<mgrwt>
<rscale>  0 0.12500210E+03</rscale>
<asrwt>0</asrwt>
<pdfrwt beam="1">  1       21 0.16079433E-01 0.12500210E+03</pdfrwt>
<pdfrwt beam="2">  1       21 0.57501239E-02 0.12500210E+03</pdfrwt>
<totfact> 0.71789402E+06</totfact>
</mgrwt>
</event>
<event>
 9    1  0.4541185E-002  0.1249984E+03  0.7818608E-02  0.1235072E+00
         21   -1    0    0  503  502  0.00000000000E+00  0.00000000000E+00  0.70161017708E+02  0.70161017708E+02  0.00000000000E+00 0.  1.
         21   -1    0    0  502  503 -0.00000000000E+00 -0.00000000000E+00 -0.55674061832E+02  0.55674061832E+02  0.00000000000E+00 0.  1.
         25    2    1    2    0    0 -0.44408920985E-15 -0.35527136788E-14  0.14486955876E+02  0.12583507954E+03  0.12499838140E+03 0.  0.
    9000006    2    3    3    0    0  0.22616668504E+01  0.16594399045E+02  0.21477119598E+01  0.62330947429E+02  0.60000376033E+02 0.  0.
    9000007    2    3    3    0    0 -0.22616668504E+01 -0.16594399045E+02  0.12339243916E+02  0.63504132111E+02  0.60000238651E+02 0.  0.
          5    1    4    4  501    0 -0.12203833254E+01 -0.15533778652E+02 -0.17756577861E+02  0.24086794557E+02  0.47000000000E+01 0. -1.
         -5    1    4    4    0  501  0.34820501758E+01  0.32128177698E+02  0.19904289821E+02  0.38244152872E+02  0.47000000000E+01 0. -1.
         12    1    5    5    0    0  0.19995364996E+02 -0.53237337842E+01 -0.15699122890E+02  0.25973433008E+02  0.00000000000E+00 0. -1.
        -12    1    5    5    0    0 -0.22257031846E+02 -0.11270665261E+02  0.28038366806E+02  0.37530699103E+02  0.00000000000E+00 0. -1.
<mgrwt>
<rscale>  0 0.12499838E+03</rscale>
<asrwt>0</asrwt>
<pdfrwt beam="1">  1       21 0.10794003E-01 0.12499838E+03</pdfrwt>
<pdfrwt beam="2">  1       21 0.85652403E-02 0.12499838E+03</pdfrwt>
<totfact> 0.73931869E+06</totfact>
</mgrwt>
</event>
<event>
 9    1  0.4541185E-002  0.1250014E+03  0.7818608E-02  0.1235067E+00
         21   -1    0    0  503  502  0.00000000000E+00  0.00000000000E+00  0.45544118491E+02  0.45544118491E+02  0.00000000000E+00 0. -1.
         21   -1    0    0  502  503 -0.00000000000E+00 -0.00000000000E+00 -0.85770339967E+02  0.85770339967E+02  0.00000000000E+00 0. -1.
         25    2    1    2    0    0  0.35527136788E-14  0.17763568394E-14 -0.40226221475E+02  0.13131445846E+03  0.12500135242E+03 0.  0.
    9000006    2    3    3    0    0  0.12610858114E+02  0.95124440148E+01 -0.28039143153E+02  0.68083998987E+02  0.59997641919E+02 0.  0.
    9000007    2    3    3    0    0 -0.12610858114E+02 -0.95124440148E+01 -0.12187078322E+02  0.63230459471E+02  0.60000381610E+02 0.  0.
          5    1    4    4  501    0  0.28941659453E+00  0.31832504291E+01 -0.45187981725E+02  0.45544050519E+02  0.47000000000E+01 0. -1.
         -5    1    4    4    0  501  0.12321441519E+02  0.63291935856E+01  0.17148838572E+02  0.22539948468E+02  0.47000000000E+01 0. -1.
         12    1    5    5    0    0 -0.23838230269E+02 -0.13393481002E+02  0.16669965650E+02  0.32023964628E+02  0.00000000000E+00 0.  1.
        -12    1    5    5    0    0  0.11227372155E+02  0.38810369874E+01 -0.28857043972E+02  0.31206494844E+02  0.00000000000E+00 0.  1.
<mgrwt>
<rscale>  0 0.12500135E+03</rscale>
<asrwt>0</asrwt>
<pdfrwt beam="1">  1       21 0.70067875E-02 0.12500135E+03</pdfrwt>
<pdfrwt beam="2">  1       21 0.13195437E-01 0.12500135E+03</pdfrwt>
<totfact> 0.73185802E+06</totfact>
</mgrwt>
</event>
<event>
 9    1  0.4541185E-002  0.1250015E+03  0.7818608E-02  0.1235067E+00
         21   -1    0    0  503  502  0.00000000000E+00  0.00000000000E+00  0.19818302432E+03  0.19818302432E+03  0.00000000000E+00 0.  1.
         21   -1    0    0  502  503 -0.00000000000E+00 -0.00000000000E+00 -0.19710791919E+02  0.19710791919E+02  0.00000000000E+00 0.  1.
         25    2    1    2    0    0  0.26645352591E-14  0.00000000000E+00  0.17847223240E+03  0.21789381624E+03  0.12500150966E+03 0.  0.
    9000006    2    3    3    0    0 -0.50563511262E+01  0.12288641292E+02  0.10909804988E+03  0.12521528108E+03  0.59999206136E+02 0.  0.
    9000007    2    3    3    0    0  0.50563511262E+01 -0.12288641292E+02  0.69374182517E+02  0.92678535156E+02  0.59999635725E+02 0.  0.
          5    1    4    4  501    0 -0.28730128730E+02  0.14907060601E+02  0.38270296335E+02  0.50342291705E+02  0.47000000000E+01 0. -1.
         -5    1    4    4    0  501  0.23673777603E+02 -0.26184193091E+01  0.70827753547E+02  0.74872989377E+02  0.47000000000E+01 0. -1.
         12    1    5    5    0    0 -0.85910825871E+00  0.12509651198E+02 -0.54188315496E+01  0.13659911254E+02  0.00000000000E+00 0.  1.
        -12    1    5    5    0    0  0.59154593849E+01 -0.24798292490E+02  0.74793014067E+02  0.79018623902E+02  0.00000000000E+00 0.  1.
<mgrwt>
<rscale>  0 0.12500151E+03</rscale>
<asrwt>0</asrwt>
<pdfrwt beam="1">  1       21 0.30489695E-01 0.12500151E+03</pdfrwt>
<pdfrwt beam="2">  1       21 0.30324297E-02 0.12500151E+03</pdfrwt>
<totfact> 0.63036061E+06</totfact>
</mgrwt>
</event>
<event>
 9    1  0.4541185E-002  0.1249838E+03  0.7818608E-02  0.1235095E+00
         21   -1    0    0  503  502  0.00000000000E+00  0.00000000000E+00  0.92400691429E+02  0.92400691429E+02  0.00000000000E+00 0. -1.
         21   -1    0    0  502  503 -0.00000000000E+00 -0.00000000000E+00 -0.42264185641E+02  0.42264185641E+02  0.00000000000E+00 0. -1.
         25    2    1    2    0    0  0.00000000000E+00  0.00000000000E+00  0.50136505788E+02  0.13466487707E+03  0.12498383857E+03 0.  0.
    9000006    2    3    3    0    0  0.10681861303E+01  0.16569556912E+02  0.19207735515E+02  0.65150031457E+02  0.59999152139E+02 0.  0.
    9000007    2    3    3    0    0 -0.10681861303E+01 -0.16569556912E+02  0.30928770273E+02  0.69514845614E+02  0.60000280768E+02 0.  0.
          5    1    4    4  501    0 -0.25968830151E+02  0.15468404350E+01 -0.32551985827E+01  0.26635674809E+02  0.47000000000E+01 0. -1.
         -5    1    4    4    0  501  0.27037016281E+02  0.15022716477E+02  0.22462934098E+02  0.38514356648E+02  0.47000000000E+01 0. -1.
         12    1    5    5    0    0  0.20188039995E+02 -0.13298002737E+02  0.39543260082E+02  0.46347203298E+02  0.00000000000E+00 0. -1.
        -12    1    5    5    0    0 -0.21256226125E+02 -0.32715541749E+01 -0.86144898094E+01  0.23167642316E+02  0.00000000000E+00 0. -1.
<mgrwt>
<rscale>  0 0.12498384E+03</rscale>
<asrwt>0</asrwt>
<pdfrwt beam="1">  1       21 0.14215491E-01 0.12498384E+03</pdfrwt>
<pdfrwt beam="2">  1       21 0.65021824E-02 0.12498384E+03</pdfrwt>
<totfact> 0.72770868E+06</totfact>
</mgrwt>
</event>
<event>
 9    1  0.4541185E-002  0.1250325E+03  0.7818608E-02  0.1235019E+00
         21   -1    0    0  503  502  0.00000000000E+00  0.00000000000E+00  0.83948487722E+01  0.83948487722E+01  0.00000000000E+00 0.  1.
         21   -1    0    0  502  503 -0.00000000000E+00 -0.00000000000E+00 -0.46555678860E+03  0.46555678860E+03  0.00000000000E+00 0.  1.
         25    2    1    2    0    0 -0.35527136788E-14  0.00000000000E+00 -0.45716193983E+03  0.47395163737E+03  0.12503245715E+03 0.  0.
    9000006    2    3    3    0    0  0.28740005244E+01 -0.15312125389E+02 -0.25924749954E+03  0.26655583065E+03  0.60000198085E+02 0.  0.
    9000007    2    3    3    0    0 -0.28740005244E+01  0.15312125389E+02 -0.19791444029E+03  0.20739580673E+03  0.60001449238E+02 0.  0.
          5    1    4    4  501    0  0.20020655247E+02 -0.30776435821E+02 -0.12950682502E+03  0.13469269974E+03  0.47000000000E+01 0. -1.
         -5    1    4    4    0  501 -0.17146654722E+02  0.15464310433E+02 -0.12974067453E+03  0.13186313091E+03  0.47000000000E+01 0. -1.
         12    1    5    5    0    0 -0.76042956326E+01 -0.21892446014E+02 -0.55925286234E+02  0.60537113781E+02  0.00000000000E+00 0.  1.
        -12    1    5    5    0    0  0.47302951082E+01  0.37204571403E+02 -0.14198915405E+03  0.14685869295E+03  0.00000000000E+00 0.  1.
<mgrwt>
<rscale>  0 0.12503246E+03</rscale>
<asrwt>0</asrwt>
<pdfrwt beam="1">  1       21 0.12915151E-02 0.12503246E+03</pdfrwt>
<pdfrwt beam="2">  1       21 0.71624127E-01 0.12503246E+03</pdfrwt>
<totfact> 0.43457738E+06</totfact>
</mgrwt>
</event>
<event>
 9    1  0.4541185E-002  0.1250026E+03  0.7818608E-02  0.1235065E+00
         21   -1    0    0  503  502  0.00000000000E+00  0.00000000000E+00  0.12542952854E+04  0.12542952854E+04  0.00000000000E+00 0. -1.
         21   -1    0    0  502  503 -0.00000000000E+00 -0.00000000000E+00 -0.31144282958E+01  0.31144282958E+01  0.00000000000E+00 0. -1.
         25    2    1    2    0    0 -0.35527136788E-14  0.00000000000E+00  0.12511808571E+04  0.12574097137E+04  0.12500260362E+03 0.  0.
    9000006    2    3    3    0    0 -0.13266579534E+01  0.83441349711E+01  0.77979788645E+03  0.78214828881E+03  0.59998478053E+02 0.  0.
    9000007    2    3    3    0    0  0.13266579534E+01 -0.83441349711E+01  0.47138297066E+03  0.47526142489E+03  0.60001102913E+02 0.  0.
          5    1    4    4  501    0 -0.27536632984E+02  0.16699296905E+02  0.44584802390E+03  0.44703431981E+03  0.47000000000E+01 0.  1.
         -5    1    4    4    0  501  0.26209975030E+02 -0.83551619341E+01  0.33394986256E+03  0.33511396901E+03  0.47000000000E+01 0.  1.
         12    1    5    5    0    0 -0.20232897833E+02  0.61255151637E+01  0.72103274648E+02  0.75138367734E+02  0.00000000000E+00 0. -1.
        -12    1    5    5    0    0  0.21559555787E+02 -0.14469650135E+02  0.39927969601E+03  0.40012305715E+03  0.00000000000E+00 0. -1.
<mgrwt>
<rscale>  0 0.12500260E+03</rscale>
<asrwt>0</asrwt>
<pdfrwt beam="1">  1       21 0.19296810E+00 0.12500260E+03</pdfrwt>
<pdfrwt beam="2">  1       21 0.47914382E-03 0.12500260E+03</pdfrwt>
<totfact> 0.18033666E+06</totfact>
</mgrwt>
</event>
<event>
 9    1  0.4541185E-002  0.1249923E+03  0.7818608E-02  0.1235081E+00
         21   -1    0    0  503  502  0.00000000000E+00  0.00000000000E+00  0.45449016220E+01  0.45449016220E+01  0.00000000000E+00 0. -1.
         21   -1    0    0  502  503 -0.00000000000E+00 -0.00000000000E+00 -0.85937355945E+03  0.85937355945E+03  0.00000000000E+00 0. -1.
         25    2    1    2    0    0  0.00000000000E+00  0.17763568394E-14 -0.85482865782E+03  0.86391846107E+03  0.12499229231E+03 0.  0.
    9000006    2    3    3    0    0 -0.84524172285E+01 -0.97358986303E+01 -0.50905934389E+03  0.51274528276E+03  0.60000652600E+02 0.  0.
    9000007    2    3    3    0    0  0.84524172285E+01  0.97358986303E+01 -0.34576931394E+03  0.35117317831E+03  0.59999596873E+02 0.  0.
          5    1    4    4  501    0 -0.18835991304E+02 -0.15000838102E+02 -0.84225524949E+02  0.87725986829E+02  0.47000000000E+01 0. -1.
         -5    1    4    4    0  501  0.10383574076E+02  0.52649394718E+01 -0.42483381894E+03  0.42501929593E+03  0.47000000000E+01 0. -1.
         12    1    5    5    0    0 -0.19864129158E+02 -0.92833961264E+01 -0.71380656937E+02  0.74672372773E+02  0.00000000000E+00 0.  1.
        -12    1    5    5    0    0  0.28316546387E+02  0.19019294757E+02 -0.27438865700E+03  0.27650080554E+03  0.00000000000E+00 0.  1.
<mgrwt>
<rscale>  0 0.12499229E+03</rscale>
<asrwt>0</asrwt>
<pdfrwt beam="1">  1       21 0.69921504E-03 0.12499229E+03</pdfrwt>
<pdfrwt beam="2">  1       21 0.13221143E+00 0.12499229E+03</pdfrwt>
<totfact> 0.27356394E+06</totfact>
</mgrwt>
</event>
<event>
 9    1  0.4541185E-002  0.1249969E+03  0.7818608E-02  0.1235074E+00
         21   -1    0    0  503  502  0.00000000000E+00  0.00000000000E+00  0.63118644697E+02  0.63118644697E+02  0.00000000000E+00 0. -1.
         21   -1    0    0  502  503 -0.00000000000E+00 -0.00000000000E+00 -0.61884343022E+02  0.61884343022E+02  0.00000000000E+00 0. -1.
         25    2    1    2    0    0  0.00000000000E+00  0.00000000000E+00  0.12343016748E+01  0.12500298772E+03  0.12499689371E+03 0.  0.
    9000006    2    3    3    0    0 -0.66146480282E+01  0.44768837451E+01 -0.14949131772E+02  0.62348482782E+02  0.60000505897E+02 0.  0.
    9000007    2    3    3    0    0  0.66146480282E+01 -0.44768837451E+01  0.16183433447E+02  0.62654504936E+02  0.59999061776E+02 0.  0.
          5    1    4    4  501    0 -0.22799535867E+02 -0.13550905420E+02 -0.23985691616E+02  0.36067288168E+02  0.47000000000E+01 0.  1.
         -5    1    4    4    0  501  0.16184887839E+02  0.18027789165E+02  0.90365598437E+01  0.26281194614E+02  0.47000000000E+01 0.  1.
         12    1    5    5    0    0  0.12585370043E+02 -0.22186405080E+02 -0.12511098792E+02  0.28410485784E+02  0.00000000000E+00 0.  1.
        -12    1    5    5    0    0 -0.59707220144E+01  0.17709521335E+02  0.28694532239E+02  0.34244019152E+02  0.00000000000E+00 0.  1.
<mgrwt>
<rscale>  0 0.12499689E+03</rscale>
<asrwt>0</asrwt>
<pdfrwt beam="1">  1       21 0.97105607E-02 0.12499689E+03</pdfrwt>
<pdfrwt beam="2">  1       21 0.95206682E-02 0.12499689E+03</pdfrwt>
<totfact> 0.74049059E+06</totfact>
</mgrwt>
</event>
<event>
 9    1  0.4541185E-002  0.1250016E+03  0.7818608E-02  0.1235067E+00
         21   -1    0    0  503  502  0.00000000000E+00  0.00000000000E+00  0.10467062991E+02  0.10467062991E+02  0.00000000000E+00 0. -1.
         21   -1    0    0  502  503 -0.00000000000E+00 -0.00000000000E+00 -0.37320412630E+03  0.37320412630E+03  0.00000000000E+00 0. -1.
         25    2    1    2    0    0 -0.71054273576E-14  0.00000000000E+00 -0.36273706331E+03  0.38367118929E+03  0.12500161756E+03 0.  0.
    9000006    2    3    3    0    0 -0.90222696668E+01  0.14871966431E+02 -0.17522688894E+03  0.18603008775E+03  0.60001285031E+02 0.  0.
    9000007    2    3    3    0    0  0.90222696668E+01 -0.14871966431E+02 -0.18751017438E+03  0.19764110155E+03  0.59994689687E+02 0.  0.
          5    1    4    4  501    0 -0.29183827410E+02  0.24622674989E+02 -0.92129062796E+02  0.99839000985E+02  0.47000000000E+01 0.  1.
         -5    1    4    4    0  501  0.20161557744E+02 -0.97507085572E+01 -0.83097826141E+02  0.86191086763E+02  0.47000000000E+01 0.  1.
         12    1    5    5    0    0  0.34465396542E+02 -0.88714238541E+01 -0.12271454913E+03  0.12777099157E+03  0.00000000000E+00 0.  1.
        -12    1    5    5    0    0 -0.25443126875E+02 -0.60005425774E+01 -0.64795625249E+02  0.69870109974E+02  0.00000000000E+00 0.  1.
<mgrwt>
<rscale>  0 0.12500162E+03</rscale>
<asrwt>0</asrwt>
<pdfrwt beam="1">  1       21 0.16103173E-02 0.12500162E+03</pdfrwt>
<pdfrwt beam="2">  1       21 0.57416023E-01 0.12500162E+03</pdfrwt>
<totfact> 0.49141631E+06</totfact>
</mgrwt>
</event>
<event>
 9    1  0.4541185E-002  0.1250036E+03  0.7818608E-02  0.1235064E+00
         21   -1    0    0  503  502  0.00000000000E+00  0.00000000000E+00  0.17945437954E+02  0.17945437954E+02  0.00000000000E+00 0.  1.
         21   -1    0    0  502  503 -0.00000000000E+00 -0.00000000000E+00 -0.21768615289E+03  0.21768615289E+03  0.00000000000E+00 0.  1.
         25    2    1    2    0    0  0.00000000000E+00 -0.17763568394E-14 -0.19974071493E+03  0.23563159084E+03  0.12500357355E+03 0.  0.
    9000006    2    3    3    0    0 -0.12198492459E+02 -0.44098331172E+01 -0.12203782947E+03  0.13660722989E+03  0.60000446569E+02 0.  0.
    9000007    2    3    3    0    0  0.12198492459E+02  0.44098331172E+01 -0.77702885462E+02  0.99024360956E+02  0.59998631711E+02 0.  0.
          5    1    4    4  501    0 -0.24985673172E+02  0.28534932109E+01 -0.11787171420E+03  0.12061615686E+03  0.47000000000E+01 0.  1.
         -5    1    4    4    0  501  0.12787180714E+02 -0.72633263281E+01 -0.41661152682E+01  0.15991073022E+02  0.47000000000E+01 0.  1.
         12    1    5    5    0    0  0.78784450462E+01  0.31080538214E+02 -0.28535790356E+02  0.42922733875E+02  0.00000000000E+00 0. -1.
        -12    1    5    5    0    0  0.43200474125E+01 -0.26670705097E+02 -0.49167095106E+02  0.56101627082E+02  0.00000000000E+00 0. -1.
<mgrwt>
<rscale>  0 0.12500357E+03</rscale>
<asrwt>0</asrwt>
<pdfrwt beam="1">  1       21 0.27608364E-02 0.12500357E+03</pdfrwt>
<pdfrwt beam="2">  1       21 0.33490180E-01 0.12500357E+03</pdfrwt>
<totfact> 0.61252438E+06</totfact>
</mgrwt>
</event>
<event>
 9    1  0.4541185E-002  0.1249986E+03  0.7818608E-02  0.1235071E+00
         21   -1    0    0  503  502  0.00000000000E+00  0.00000000000E+00  0.40519825691E+03  0.40519825691E+03  0.00000000000E+00 0.  1.
         21   -1    0    0  502  503 -0.00000000000E+00 -0.00000000000E+00 -0.96401260883E+01  0.96401260883E+01  0.00000000000E+00 0.  1.
         25    2    1    2    0    0  0.35527136788E-14  0.00000000000E+00  0.39555813082E+03  0.41483838300E+03  0.12499859659E+03 0.  0.
    9000006    2    3    3    0    0  0.13165288552E+02  0.71541353036E+01  0.22778425283E+03  0.23602940431E+03  0.59997561502E+02 0.  0.
    9000007    2    3    3    0    0 -0.13165288552E+02 -0.71541353036E+01  0.16777387799E+03  0.17880897869E+03  0.60000585407E+02 0.  0.
          5    1    4    4  501    0 -0.96242160728E+01 -0.87277459698E+01  0.11666173555E+02  0.18082828599E+02  0.47000000000E+01 0.  1.
         -5    1    4    4    0  501  0.22789504625E+02  0.15881881273E+02  0.21611807928E+03  0.21794657571E+03  0.47000000000E+01 0.  1.
         12    1    5    5    0    0  0.11958372570E+02 -0.18749338904E+02  0.13053217639E+03  0.13241295049E+03  0.00000000000E+00 0.  1.
        -12    1    5    5    0    0 -0.25123661122E+02  0.11595203600E+02  0.37241701600E+02  0.46396028200E+02  0.00000000000E+00 0.  1.
<mgrwt>
<rscale>  0 0.12499860E+03</rscale>
<asrwt>0</asrwt>
<pdfrwt beam="1">  1       21 0.62338180E-01 0.12499860E+03</pdfrwt>
<pdfrwt beam="2">  1       21 0.14830966E-02 0.12499860E+03</pdfrwt>
<totfact> 0.47074118E+06</totfact>
</mgrwt>
</event>
<event>
 9    1  0.4541185E-002  0.1249978E+03  0.7818608E-02  0.1235073E+00
         21   -1    0    0  503  502  0.00000000000E+00  0.00000000000E+00  0.13180814127E+03  0.13180814127E+03  0.00000000000E+00 0. -1.
         21   -1    0    0  502  503 -0.00000000000E+00 -0.00000000000E+00 -0.29634825198E+02  0.29634825198E+02  0.00000000000E+00 0. -1.
         25    2    1    2    0    0  0.00000000000E+00  0.35527136788E-14  0.10217331608E+03  0.16144296647E+03  0.12499777960E+03 0.  0.
    9000006    2    3    3    0    0  0.12649204204E+02  0.12075626002E+02  0.51973151435E+02  0.81281186580E+02  0.59996664169E+02 0.  0.
    9000007    2    3    3    0    0 -0.12649204204E+02 -0.12075626002E+02  0.50200164641E+02  0.80161779892E+02  0.60000260959E+02 0.  0.
          5    1    4    4  501    0  0.46058011667E+01 -0.22307618243E+02  0.77939746748E+01  0.24529151581E+02  0.47000000000E+01 0. -1.
         -5    1    4    4    0  501  0.80434030371E+01  0.34383244246E+02  0.44179176760E+02  0.56752034998E+02  0.47000000000E+01 0. -1.
         12    1    5    5    0    0 -0.29487817297E+02  0.29927984938E+01  0.49329048952E+02  0.57548616685E+02  0.00000000000E+00 0.  1.
        -12    1    5    5    0    0  0.16838613093E+02 -0.15068424496E+02  0.87111568840E+00  0.22613163208E+02  0.00000000000E+00 0.  1.
<mgrwt>
<rscale>  0 0.12499778E+03</rscale>
<asrwt>0</asrwt>
<pdfrwt beam="1">  1       21 0.20278175E-01 0.12499778E+03</pdfrwt>
<pdfrwt beam="2">  1       21 0.45592040E-02 0.12499778E+03</pdfrwt>
<totfact> 0.69347524E+06</totfact>
</mgrwt>
</event>
<event>
 9    1  0.4541185E-002  0.1249605E+03  0.7818608E-02  0.1235131E+00
         21   -1    0    0  503  502  0.00000000000E+00  0.00000000000E+00  0.12693095039E+02  0.12693095039E+02  0.00000000000E+00 0.  1.
         21   -1    0    0  502  503 -0.00000000000E+00 -0.00000000000E+00 -0.30755181875E+03  0.30755181875E+03  0.00000000000E+00 0.  1.
         25    2    1    2    0    0  0.88817841970E-15  0.00000000000E+00 -0.29485872372E+03  0.32024491379E+03  0.12496054521E+03 0.  0.
    9000006    2    3    3    0    0 -0.62517695216E+01  0.10350204669E+00 -0.10574138947E+03  0.12173928360E+03  0.60000969898E+02 0.  0.
    9000007    2    3    3    0    0  0.62517695216E+01 -0.10350204669E+00 -0.18911733424E+03  0.19850563019E+03  0.60000198111E+02 0.  0.
          5    1    4    4  501    0 -0.88209956174E+01  0.22891547595E+01  0.46056852715E+01  0.11240664127E+02  0.47000000000E+01 0.  1.
         -5    1    4    4    0  501  0.25692260958E+01 -0.21856527128E+01 -0.11034707475E+03  0.11049861947E+03  0.47000000000E+01 0.  1.
         12    1    5    5    0    0  0.24671948979E+02 -0.16730258058E+02 -0.14362329082E+03  0.14668420592E+03  0.00000000000E+00 0. -1.
        -12    1    5    5    0    0 -0.18420179458E+02  0.16626756011E+02 -0.45494043419E+02  0.51821424270E+02  0.00000000000E+00 0. -1.
<mgrwt>
<rscale>  0 0.12496055E+03</rscale>
<asrwt>0</asrwt>
<pdfrwt beam="1">  1       21 0.19527839E-02 0.12496055E+03</pdfrwt>
<pdfrwt beam="2">  1       21 0.47315663E-01 0.12496055E+03</pdfrwt>
<totfact> 0.53867243E+06</totfact>
</mgrwt>
</event>
<event>
 9    1  0.4541185E-002  0.1249988E+03  0.7818608E-02  0.1235071E+00
         21   -1    0    0  503  502  0.00000000000E+00  0.00000000000E+00  0.14081139985E+04  0.14081139985E+04  0.00000000000E+00 0. -1.
         21   -1    0    0  502  503 -0.00000000000E+00 -0.00000000000E+00 -0.27740485438E+01  0.27740485438E+01  0.00000000000E+00 0. -1.
         25    2    1    2    0    0  0.17763568394E-14 -0.26645352591E-14  0.14053399499E+04  0.14108880470E+04  0.12499882539E+03 0.  0.
    9000006    2    3    3    0    0 -0.62656384707E+01 -0.78011110079E+01  0.86475868611E+03  0.86689533811E+03  0.59998553928E+02 0.  0.
    9000007    2    3    3    0    0  0.62656384707E+01  0.78011110079E+01  0.54058126382E+03  0.54399270891E+03  0.59998741608E+02 0.  0.
          5    1    4    4  501    0 -0.31571066885E+02 -0.23732846759E+01  0.34841659965E+03  0.34988366874E+03  0.47000000000E+01 0. -1.
         -5    1    4    4    0  501  0.25305428414E+02 -0.54278263319E+01  0.51634208646E+03  0.51701166937E+03  0.47000000000E+01 0. -1.
         12    1    5    5    0    0 -0.12875514984E+01  0.29406728416E+02  0.15740785512E+03  0.16013633666E+03  0.00000000000E+00 0. -1.
        -12    1    5    5    0    0  0.75531899691E+01 -0.21605617408E+02  0.38317340870E+03  0.38385637226E+03  0.00000000000E+00 0. -1.
<mgrwt>
<rscale>  0 0.12499883E+03</rscale>
<asrwt>0</asrwt>
<pdfrwt beam="1">  1       21 0.21663235E+00 0.12499883E+03</pdfrwt>
<pdfrwt beam="2">  1       21 0.42677782E-03 0.12499883E+03</pdfrwt>
<totfact> 0.15369026E+06</totfact>
</mgrwt>
</event>
<event>
 8    1  0.4541185E-002  0.1251355E+03  0.7818608E-02  0.1234858E+00
         21   -1    0    0  503  502  0.00000000000E+00  0.00000000000E+00  0.34777849407E+03  0.34777849407E+03  0.00000000000E+00 0.  1.
         21   -1    0    0  502  503 -0.00000000000E+00 -0.00000000000E+00 -0.11256361169E+02  0.11256361169E+02  0.00000000000E+00 0.  1.
    9000006    2    1    2    0    0  0.31171271325E+01 -0.76701082827E+01  0.12324213210E+03  0.13732130399E+03  0.59999753032E+02 0.  0.
    9000007    2    1    2    0    0 -0.31171271325E+01  0.76701082827E+01  0.21328000081E+03  0.22171355125E+03  0.59999941837E+02 0.  0.
          5    1    3    3  501    0  0.18534440044E+02  0.20499329695E+02  0.60666286450E+02  0.66829905710E+02  0.47000000000E+01 0. -1.
         -5    1    3    3    0  501 -0.15417312912E+02 -0.28169437977E+02  0.62575845649E+02  0.70491398284E+02  0.47000000000E+01 0. -1.
         12    1    4    4    0    0 -0.65142092591E+01  0.25989104883E+02  0.19007719081E+03  0.19195626315E+03  0.00000000000E+00 0. -1.
        -12    1    4    4    0    0  0.33970821267E+01 -0.18318996600E+02  0.23202809994E+02  0.29757288099E+02  0.00000000000E+00 0. -1.
<mgrwt>
<rscale>  0 0.12513545E+03</rscale>
<asrwt>0</asrwt>
<pdfrwt beam="1">  1       21 0.53504375E-01 0.12513545E+03</pdfrwt>
<pdfrwt beam="2">  1       21 0.17317481E-02 0.12513545E+03</pdfrwt>
<totfact> 0.50705843E+06</totfact>
</mgrwt>
</event>
<event>
 9    1  0.4541185E-002  0.1249984E+03  0.7818608E-02  0.1235072E+00
         21   -1    0    0  503  502  0.00000000000E+00  0.00000000000E+00  0.12365002319E+03  0.12365002319E+03  0.00000000000E+00 0. -1.
         21   -1    0    0  502  503 -0.00000000000E+00 -0.00000000000E+00 -0.31590391422E+02  0.31590391422E+02  0.00000000000E+00 0. -1.
         25    2    1    2    0    0  0.00000000000E+00  0.88817841970E-15  0.92059631768E+02  0.15524041461E+03  0.12499844210E+03 0.  0.
    9000006    2    3    3    0    0 -0.15633795826E+02 -0.71793221819E+01  0.42057489332E+02  0.75264946723E+02  0.60000179645E+02 0.  0.
    9000007    2    3    3    0    0  0.15633795826E+02  0.71793221819E+01  0.50002142436E+02  0.79975467888E+02  0.59999191468E+02 0.  0.
          5    1    4    4  501    0  0.96621357363E+01  0.18066653371E+02  0.16034072236E+01  0.21081312714E+02  0.47000000000E+01 0.  1.
         -5    1    4    4    0  501 -0.25295931562E+02 -0.25245975553E+02  0.40454082108E+02  0.54183634009E+02  0.47000000000E+01 0.  1.
         12    1    5    5    0    0 -0.17488774800E+00  0.37032588092E+01  0.60544994886E+02  0.60658396923E+02  0.00000000000E+00 0.  1.
        -12    1    5    5    0    0  0.15808683574E+02  0.34760633728E+01 -0.10542852450E+02  0.19317070965E+02  0.00000000000E+00 0.  1.
<mgrwt>
<rscale>  0 0.12499844E+03</rscale>
<asrwt>0</asrwt>
<pdfrwt beam="1">  1       21 0.19023080E-01 0.12499844E+03</pdfrwt>
<pdfrwt beam="2">  1       21 0.48600603E-02 0.12499844E+03</pdfrwt>
<totfact> 0.70108569E+06</totfact>
</mgrwt>
</event>
<event>
 9    1  0.4541185E-002  0.1249924E+03  0.7818608E-02  0.1235081E+00
         21   -1    0    0  503  502  0.00000000000E+00  0.00000000000E+00  0.25422278962E+03  0.25422278962E+03  0.00000000000E+00 0.  1.
         21   -1    0    0  502  503 -0.00000000000E+00 -0.00000000000E+00 -0.15363595365E+02  0.15363595365E+02  0.00000000000E+00 0.  1.
         25    2    1    2    0    0  0.17763568394E-14 -0.88817841970E-15  0.23885919425E+03  0.26958638498E+03  0.12499241693E+03 0.  0.
    9000006    2    3    3    0    0  0.15103834154E+02  0.11912822327E+01  0.13823795981E+03  0.15145733818E+03  0.60000389976E+02 0.  0.
    9000007    2    3    3    0    0 -0.15103834154E+02 -0.11912822327E+01  0.10062123444E+03  0.11812904680E+03  0.60002449265E+02 0.  0.
          5    1    4    4  501    0 -0.66768683999E+01  0.10792105332E+02  0.27441164570E+01  0.13808341112E+02  0.47000000000E+01 0. -1.
         -5    1    4    4    0  501  0.21780702554E+02 -0.96008230993E+01  0.13549384336E+03  0.13764899707E+03  0.47000000000E+01 0. -1.
         12    1    5    5    0    0 -0.38053800761E+02 -0.44148488552E+01  0.69046348118E+02  0.78961894805E+02  0.00000000000E+00 0. -1.
        -12    1    5    5    0    0  0.22949966607E+02  0.32235666225E+01  0.31574886323E+02  0.39167151994E+02  0.00000000000E+00 0. -1.
<mgrwt>
<rscale>  0 0.12499242E+03</rscale>
<asrwt>0</asrwt>
<pdfrwt beam="1">  1       21 0.39111195E-01 0.12499242E+03</pdfrwt>
<pdfrwt beam="2">  1       21 0.23636302E-02 0.12499242E+03</pdfrwt>
<totfact> 0.58092704E+06</totfact>
</mgrwt>
</event>
<event>
 9    1  0.4541185E-002  0.1250043E+03  0.7818608E-02  0.1235062E+00
         21   -1    0    0  503  502  0.00000000000E+00  0.00000000000E+00  0.54526963646E+02  0.54526963646E+02  0.00000000000E+00 0.  1.
         21   -1    0    0  502  503 -0.00000000000E+00 -0.00000000000E+00 -0.71643843345E+02  0.71643843345E+02  0.00000000000E+00 0.  1.
         25    2    1    2    0    0 -0.88817841970E-15 -0.35527136788E-14 -0.17116879700E+02  0.12617080699E+03  0.12500433979E+03 0.  0.
    9000006    2    3    3    0    0  0.38813726274E+01 -0.16753033952E+02 -0.11875332850E+02  0.63535066669E+02  0.59999599717E+02 0.  0.
    9000007    2    3    3    0    0 -0.38813726274E+01  0.16753033952E+02 -0.52415468497E+01  0.62635740322E+02  0.60000274601E+02 0.  0.
          5    1    4    4  501    0  0.78268308924E+01 -0.90280246110E+01 -0.35597988351E+02  0.37842717725E+02  0.47000000000E+01 0.  1.
         -5    1    4    4    0  501 -0.39454582649E+01 -0.77250093413E+01  0.23722655501E+02  0.25692348944E+02  0.47000000000E+01 0.  1.
         12    1    5    5    0    0 -0.11473643141E+02  0.32909843582E+02  0.12919324720E+02  0.37170031514E+02  0.00000000000E+00 0.  1.
        -12    1    5    5    0    0  0.75922705133E+01 -0.16156809629E+02 -0.18160871570E+02  0.25465708809E+02  0.00000000000E+00 0.  1.
<mgrwt>
<rscale>  0 0.12500434E+03</rscale>
<asrwt>0</asrwt>
<pdfrwt beam="1">  1       21 0.83887637E-02 0.12500434E+03</pdfrwt>
<pdfrwt beam="2">  1       21 0.11022130E-01 0.12500434E+03</pdfrwt>
<totfact> 0.73874342E+06</totfact>
</mgrwt>
</event>
<event>
 9    1  0.4541185E-002  0.1250000E+03  0.7818608E-02  0.1235069E+00
         21   -1    0    0  503  502  0.00000000000E+00  0.00000000000E+00  0.59436907011E+01  0.59436907011E+01  0.00000000000E+00 0. -1.
         21   -1    0    0  502  503 -0.00000000000E+00 -0.00000000000E+00 -0.65721002453E+03  0.65721002453E+03  0.00000000000E+00 0. -1.
         25    2    1    2    0    0  0.00000000000E+00  0.00000000000E+00 -0.65126633383E+03  0.66315371523E+03  0.12500004978E+03 0.  0.
    9000006    2    3    3    0    0  0.13356018042E+02  0.11275812788E+02 -0.33066956274E+03  0.33652344361E+03  0.60001176731E+02 0.  0.
    9000007    2    3    3    0    0 -0.13356018042E+02 -0.11275812788E+02 -0.32059677109E+03  0.32663027162E+03  0.59995979284E+02 0.  0.
          5    1    4    4  501    0  0.73650844751E+01 -0.16204161891E+02 -0.25492880271E+03  0.25559265205E+03  0.47000000000E+01 0.  1.
         -5    1    4    4    0  501  0.59909335671E+01  0.27479974679E+02 -0.75740760030E+02  0.80930791564E+02  0.47000000000E+01 0.  1.
         12    1    5    5    0    0  0.11184799589E+02 -0.17580235556E+02 -0.42009107572E+02  0.46892745101E+02  0.00000000000E+00 0.  1.
        -12    1    5    5    0    0 -0.24540817631E+02  0.63044227677E+01 -0.27858766352E+03  0.27973752652E+03  0.00000000000E+00 0.  1.
<mgrwt>
<rscale>  0 0.12500005E+03</rscale>
<asrwt>0</asrwt>
<pdfrwt beam="1">  1       21 0.91441408E-03 0.12500005E+03</pdfrwt>
<pdfrwt beam="2">  1       21 0.10110922E+00 0.12500005E+03</pdfrwt>
<totfact> 0.34379532E+06</totfact>
</mgrwt>
</event>
<event>
 9    1  0.4541185E-002  0.1250025E+03  0.7818608E-02  0.1235065E+00
         21   -1    0    0  503  502  0.00000000000E+00  0.00000000000E+00  0.18658925923E+03  0.18658925923E+03  0.00000000000E+00 0. -1.
         21   -1    0    0  502  503 -0.00000000000E+00 -0.00000000000E+00 -0.20935846265E+02  0.20935846265E+02  0.00000000000E+00 0. -1.
         25    2    1    2    0    0  0.00000000000E+00  0.00000000000E+00  0.16565341296E+03  0.20752510549E+03  0.12500246471E+03 0.  0.
    9000006    2    3    3    0    0  0.13368296744E+01 -0.15477238604E+02  0.69441543900E+02  0.93078116243E+02  0.60000630628E+02 0.  0.
    9000007    2    3    3    0    0 -0.13368296744E+01  0.15477238604E+02  0.96211869063E+02  0.11444698925E+03  0.60000479762E+02 0.  0.
          5    1    4    4  501    0 -0.16153917445E+02 -0.67662998958E+01 -0.25700925930E+01  0.18314672780E+02  0.47000000000E+01 0.  1.
         -5    1    4    4    0  501  0.17490747120E+02 -0.87109387081E+01  0.72011636493E+02  0.74763443463E+02  0.47000000000E+01 0.  1.
         12    1    5    5    0    0  0.24997620150E+02 -0.83403421846E-01  0.69422944881E+02  0.73786402848E+02  0.00000000000E+00 0. -1.
        -12    1    5    5    0    0 -0.26334449825E+02  0.15560642026E+02  0.26788924182E+02  0.40660586403E+02  0.00000000000E+00 0. -1.
<mgrwt>
<rscale>  0 0.12500246E+03</rscale>
<asrwt>0</asrwt>
<pdfrwt beam="1">  1       21 0.28706039E-01 0.12500246E+03</pdfrwt>
<pdfrwt beam="2">  1       21 0.32208996E-02 0.12500246E+03</pdfrwt>
<totfact> 0.64116869E+06</totfact>
</mgrwt>
</event>
<event>
 9    1  0.4541185E-002  0.1249961E+03  0.7818608E-02  0.1235075E+00
         21   -1    0    0  503  502  0.00000000000E+00  0.00000000000E+00  0.54595165337E+02  0.54595165337E+02  0.00000000000E+00 0. -1.
         21   -1    0    0  502  503 -0.00000000000E+00 -0.00000000000E+00 -0.71544899884E+02  0.71544899884E+02  0.00000000000E+00 0. -1.
         25    2    1    2    0    0  0.17763568394E-14 -0.88817841970E-15 -0.16949734546E+02  0.12614006522E+03  0.12499609015E+03 0.  0.
    9000006    2    3    3    0    0  0.76466748154E+01  0.65955030159E+01  0.59343969960E+01  0.61133103061E+02  0.60000557717E+02 0.  0.
    9000007    2    3    3    0    0 -0.76466748154E+01 -0.65955030159E+01 -0.22884131542E+02  0.65006962160E+02  0.60002077940E+02 0.  0.
          5    1    4    4  501    0 -0.17249714582E+02  0.17830465240E+02 -0.12168556072E+02  0.28029304321E+02  0.47000000000E+01 0. -1.
         -5    1    4    4    0  501  0.24896389398E+02 -0.11234962224E+02  0.18102953068E+02  0.33103798740E+02  0.47000000000E+01 0. -1.
         12    1    5    5    0    0 -0.21895255160E+02 -0.65159214505E+01 -0.37934296961E+02  0.44281715378E+02  0.00000000000E+00 0.  1.
        -12    1    5    5    0    0  0.14248580345E+02 -0.79581565372E-01  0.15050165419E+02  0.20725246782E+02  0.00000000000E+00 0.  1.
<mgrwt>
<rscale>  0 0.12499609E+03</rscale>
<asrwt>0</asrwt>
<pdfrwt beam="1">  1       21 0.83992562E-02 0.12499609E+03</pdfrwt>
<pdfrwt beam="2">  1       21 0.11006908E-01 0.12499609E+03</pdfrwt>
<totfact> 0.73894121E+06</totfact>
</mgrwt>
</event>
<event>
 9    1  0.4541185E-002  0.1250028E+03  0.7818608E-02  0.1235065E+00
         21   -1    0    0  503  502  0.00000000000E+00  0.00000000000E+00  0.24381847808E+03  0.24381847808E+03  0.00000000000E+00 0.  1.
         21   -1    0    0  502  503 -0.00000000000E+00 -0.00000000000E+00 -0.16021857345E+02  0.16021857345E+02  0.00000000000E+00 0.  1.
         25    2    1    2    0    0  0.00000000000E+00  0.22204460493E-15  0.22779662074E+03  0.25984033543E+03  0.12500279795E+03 0.  0.
    9000006    2    3    3    0    0  0.16774931884E+02  0.12424442743E+01  0.12395133684E+03  0.13873368697E+03  0.60001333211E+02 0.  0.
    9000007    2    3    3    0    0 -0.16774931884E+02 -0.12424442743E+01  0.10384528389E+03  0.12110664846E+03  0.60000294220E+02 0.  0.
          5    1    4    4  501    0  0.34073198143E+02  0.15121008499E+01  0.39491410737E+02  0.52392087214E+02  0.47000000000E+01 0. -1.
         -5    1    4    4    0  501 -0.17298266258E+02 -0.26965657565E+00  0.84459926107E+02  0.86341599754E+02  0.47000000000E+01 0. -1.
         12    1    5    5    0    0 -0.34278061762E+02  0.16653835662E+01  0.31385036589E+02  0.46505693654E+02  0.00000000000E+00 0. -1.
        -12    1    5    5    0    0  0.17503129878E+02 -0.29078278405E+01  0.72460247306E+02  0.74600954805E+02  0.00000000000E+00 0. -1.
<mgrwt>
<rscale>  0 0.12500280E+03</rscale>
<asrwt>0</asrwt>
<pdfrwt beam="1">  1       21 0.37510532E-01 0.12500280E+03</pdfrwt>
<pdfrwt beam="2">  1       21 0.24649013E-02 0.12500280E+03</pdfrwt>
<totfact> 0.58959754E+06</totfact>
</mgrwt>
</event>
<event>
 9    1  0.4541185E-002  0.1250009E+03  0.7818608E-02  0.1235068E+00
         21   -1    0    0  503  502  0.00000000000E+00  0.00000000000E+00  0.42204526394E+02  0.42204526394E+02  0.00000000000E+00 0. -1.
         21   -1    0    0  502  503 -0.00000000000E+00 -0.00000000000E+00 -0.92556576908E+02  0.92556576908E+02  0.00000000000E+00 0. -1.
         25    2    1    2    0    0 -0.44408920985E-15  0.00000000000E+00 -0.50352050513E+02  0.13476110330E+03  0.12500090389E+03 0.  0.
    9000006    2    3    3    0    0 -0.55012129375E+00  0.56758689309E+01 -0.73380679829E+01  0.60715680422E+02  0.60000237382E+02 0.  0.
    9000007    2    3    3    0    0  0.55012129375E+00 -0.56758689309E+01 -0.43013982530E+02  0.74045422880E+02  0.60000031956E+02 0.  0.
          5    1    4    4  501    0  0.15255157125E+01  0.22979399120E+02 -0.25796298141E+02  0.34898695963E+02  0.47000000000E+01 0.  1.
         -5    1    4    4    0  501 -0.20756370063E+01 -0.17303530190E+02  0.18458230158E+02  0.25816984459E+02  0.47000000000E+01 0.  1.
         12    1    5    5    0    0 -0.66912789831E+01  0.86162539753E+01  0.12309867175E+02  0.16448278842E+02  0.00000000000E+00 0.  1.
        -12    1    5    5    0    0  0.72414002768E+01 -0.14292122906E+02 -0.55323849705E+02  0.57597144038E+02  0.00000000000E+00 0.  1.
<mgrwt>
<rscale>  0 0.12500090E+03</rscale>
<asrwt>0</asrwt>
<pdfrwt beam="1">  1       21 0.64930041E-02 0.12500090E+03</pdfrwt>
<pdfrwt beam="2">  1       21 0.14239473E-01 0.12500090E+03</pdfrwt>
<totfact> 0.72726442E+06</totfact>
</mgrwt>
</event>
<event>
 9    1  0.4541185E-002  0.1250060E+03  0.7818608E-02  0.1235060E+00
         21   -1    0    0  503  502  0.00000000000E+00  0.00000000000E+00  0.86681194853E+03  0.86681194853E+03  0.00000000000E+00 0. -1.
         21   -1    0    0  502  503 -0.00000000000E+00 -0.00000000000E+00 -0.45068882937E+01  0.45068882937E+01  0.00000000000E+00 0. -1.
         25    2    1    2    0    0 -0.17763568394E-14 -0.35527136788E-14  0.86230506024E+03  0.87131883683E+03  0.12500599384E+03 0.  0.
    9000006    2    3    3    0    0  0.70882145599E+01  0.96132658310E+01  0.52039327291E+03  0.52397692335E+03  0.60000000344E+02 0.  0.
    9000007    2    3    3    0    0 -0.70882145599E+01 -0.96132658310E+01  0.34191178733E+03  0.34734191348E+03  0.60000640677E+02 0.  0.
          5    1    4    4  501    0 -0.15453197084E+02 -0.17094330810E+02  0.28344695114E+03  0.28442095836E+03  0.47000000000E+01 0.  1.
         -5    1    4    4    0  501  0.22541411644E+02  0.26707596641E+02  0.23694632178E+03  0.23955596499E+03  0.47000000000E+01 0.  1.
         12    1    5    5    0    0  0.15657137267E+02  0.18256226001E+02  0.10533694294E+03  0.10804770837E+03  0.00000000000E+00 0.  1.
        -12    1    5    5    0    0 -0.22745351827E+02 -0.27869491832E+02  0.23657484438E+03  0.23929420511E+03  0.00000000000E+00 0.  1.
<mgrwt>
<rscale>  0 0.12500599E+03</rscale>
<asrwt>0</asrwt>
<pdfrwt beam="1">  1       21 0.13335555E+00 0.12500599E+03</pdfrwt>
<pdfrwt beam="2">  1       21 0.69336812E-03 0.12500599E+03</pdfrwt>
<totfact> 0.27127331E+06</totfact>
</mgrwt>
</event>
<event>
 9    1  0.4541185E-002  0.1250019E+03  0.7818608E-02  0.1235066E+00
         21   -1    0    0  503  502  0.00000000000E+00  0.00000000000E+00  0.35404804805E+02  0.35404804805E+02  0.00000000000E+00 0. -1.
         21   -1    0    0  502  503 -0.00000000000E+00 -0.00000000000E+00 -0.11033439590E+03  0.11033439590E+03  0.00000000000E+00 0. -1.
         25    2    1    2    0    0  0.35527136788E-14 -0.17763568394E-14 -0.74929591098E+02  0.14573920071E+03  0.12500188399E+03 0.  0.
    9000006    2    3    3    0    0  0.32628418027E+01 -0.10143597112E+02 -0.21305861917E+02  0.64556120300E+02  0.60000118477E+02 0.  0.
    9000007    2    3    3    0    0 -0.32628418027E+01  0.10143597112E+02 -0.53623729182E+02  0.81183080408E+02  0.60013744378E+02 0.  0.
          5    1    4    4  501    0  0.24905986813E+02 -0.10538879171E+02 -0.30087825767E+02  0.40727673794E+02  0.47000000000E+01 0.  1.
         -5    1    4    4    0  501 -0.21643145010E+02  0.39528205888E+00  0.87819638498E+01  0.23828446506E+02  0.47000000000E+01 0.  1.
         12    1    5    5    0    0  0.24075009859E+02 -0.49758841860E+00 -0.44264404108E+02  0.50390387625E+02  0.00000000000E+00 0.  1.
        -12    1    5    5    0    0 -0.27337851662E+02  0.10641185531E+02 -0.93593250731E+01  0.30792692783E+02  0.00000000000E+00 0.  1.
<mgrwt>
<rscale>  0 0.12500188E+03</rscale>
<asrwt>0</asrwt>
<pdfrwt beam="1">  1       21 0.54468932E-02 0.12500188E+03</pdfrwt>
<pdfrwt beam="2">  1       21 0.16974522E-01 0.12500188E+03</pdfrwt>
<totfact> 0.71295213E+06</totfact>
</mgrwt>
</event>
<event>
 9    1  0.4541185E-002  0.1249952E+03  0.7818608E-02  0.1235077E+00
         21   -1    0    0  503  502  0.00000000000E+00  0.00000000000E+00  0.13408507569E+02  0.13408507569E+02  0.00000000000E+00 0.  1.
         21   -1    0    0  502  503 -0.00000000000E+00 -0.00000000000E+00 -0.29130377407E+03  0.29130377407E+03  0.00000000000E+00 0.  1.
         25    2    1    2    0    0 -0.17763568394E-14  0.00000000000E+00 -0.27789526650E+03  0.30471228164E+03  0.12499518166E+03 0.  0.
    9000006    2    3    3    0    0 -0.58632716879E+01 -0.18041871924E+01 -0.99022198344E+02  0.11594418919E+03  0.60000218295E+02 0.  0.
    9000007    2    3    3    0    0  0.58632716879E+01  0.18041871924E+01 -0.17887306816E+03  0.18876809245E+03  0.60001543056E+02 0.  0.
          5    1    4    4  501    0 -0.20422223255E+02 -0.24653277057E+02 -0.60581774888E+02  0.68681094348E+02  0.47000000000E+01 0. -1.
         -5    1    4    4    0  501  0.14558951567E+02  0.22849089865E+02 -0.38440423456E+02  0.47263094840E+02  0.47000000000E+01 0. -1.
         12    1    5    5    0    0  0.18418644816E+02  0.95982912683E+01 -0.17054518109E+03  0.17180521664E+03  0.00000000000E+00 0.  1.
        -12    1    5    5    0    0 -0.12555373128E+02 -0.77941040759E+01 -0.83278870680E+01  0.16962875810E+02  0.00000000000E+00 0.  1.
<mgrwt>
<rscale>  0 0.12499518E+03</rscale>
<asrwt>0</asrwt>
<pdfrwt beam="1">  1       21 0.20628474E-02 0.12499518E+03</pdfrwt>
<pdfrwt beam="2">  1       21 0.44815963E-01 0.12499518E+03</pdfrwt>
<totfact> 0.55073491E+06</totfact>
</mgrwt>
</event>
<event>
 9    1  0.4541185E-002  0.1250223E+03  0.7818608E-02  0.1235034E+00
         21   -1    0    0  503  502  0.00000000000E+00  0.00000000000E+00  0.64091458568E+01  0.64091458568E+01  0.00000000000E+00 0.  1.
         21   -1    0    0  502  503 -0.00000000000E+00 -0.00000000000E+00 -0.60969839285E+03  0.60969839285E+03  0.00000000000E+00 0.  1.
         25    2    1    2    0    0  0.00000000000E+00  0.00000000000E+00 -0.60328924700E+03  0.61610753871E+03  0.12502233286E+03 0.  0.
    9000006    2    3    3    0    0  0.75636616553E+01  0.11319138528E+02 -0.35612578571E+03  0.36140128115E+03  0.59999824155E+02 0.  0.
    9000007    2    3    3    0    0 -0.75636616553E+01 -0.11319138528E+02 -0.24716346129E+03  0.25470625756E+03  0.60001409715E+02 0.  0.
          5    1    4    4  501    0  0.31584292720E+02  0.10560797129E+00 -0.24441358583E+03  0.24649070903E+03  0.47000000000E+01 0. -1.
         -5    1    4    4    0  501 -0.24020631065E+02  0.11213530556E+02 -0.11171219988E+03  0.11491057213E+03  0.47000000000E+01 0. -1.
         12    1    5    5    0    0 -0.24804384344E+02 -0.10748046265E+02 -0.50435077681E+02  0.57223028948E+02  0.00000000000E+00 0. -1.
        -12    1    5    5    0    0  0.17240722689E+02 -0.57109226221E+00 -0.19672838361E+03  0.19748322861E+03  0.00000000000E+00 0. -1.
<mgrwt>
<rscale>  0 0.12502233E+03</rscale>
<asrwt>0</asrwt>
<pdfrwt beam="1">  1       21 0.98602256E-03 0.12502233E+03</pdfrwt>
<pdfrwt beam="2">  1       21 0.93799742E-01 0.12502233E+03</pdfrwt>
<totfact> 0.36354013E+06</totfact>
</mgrwt>
</event>
<event>
 9    1  0.4541185E-002  0.1250004E+03  0.7818608E-02  0.1235069E+00
         21   -1    0    0  503  502  0.00000000000E+00  0.00000000000E+00  0.36707988368E+02  0.36707988368E+02  0.00000000000E+00 0. -1.
         21   -1    0    0  502  503 -0.00000000000E+00 -0.00000000000E+00 -0.10641486210E+03  0.10641486210E+03  0.00000000000E+00 0. -1.
         25    2    1    2    0    0  0.00000000000E+00 -0.17763568394E-14 -0.69706873729E+02  0.14312285046E+03  0.12500040832E+03 0.  0.
    9000006    2    3    3    0    0 -0.13168002314E+02 -0.11515258539E+02 -0.35351896107E+02  0.71804003274E+02  0.60000507195E+02 0.  0.
    9000007    2    3    3    0    0  0.13168002314E+02  0.11515258539E+02 -0.34354977622E+02  0.71318847191E+02  0.60000966767E+02 0.  0.
          5    1    4    4  501    0  0.16485182363E+02 -0.90238674605E+01  0.63250067437E+01  0.20378594941E+02  0.47000000000E+01 0. -1.
         -5    1    4    4    0  501 -0.29653184677E+02 -0.24913910785E+01 -0.41676902850E+02  0.51425408333E+02  0.47000000000E+01 0. -1.
         12    1    5    5    0    0 -0.20143615866E+02 -0.12366011196E+01  0.21317393127E+01  0.20293810756E+02  0.00000000000E+00 0.  1.
        -12    1    5    5    0    0  0.33311618180E+02  0.12751859659E+02 -0.36486716935E+02  0.51025036435E+02  0.00000000000E+00 0.  1.
<mgrwt>
<rscale>  0 0.12500041E+03</rscale>
<asrwt>0</asrwt>
<pdfrwt beam="1">  1       21 0.56473829E-02 0.12500041E+03</pdfrwt>
<pdfrwt beam="2">  1       21 0.16371517E-01 0.12500041E+03</pdfrwt>
<totfact> 0.71633458E+06</totfact>
</mgrwt>
</event>
<event>
 9    1  0.4541185E-002  0.1249990E+03  0.7818608E-02  0.1235071E+00
         21   -1    0    0  503  502  0.00000000000E+00  0.00000000000E+00  0.11569026214E+03  0.11569026214E+03  0.00000000000E+00 0.  1.
         21   -1    0    0  502  503 -0.00000000000E+00 -0.00000000000E+00 -0.33764173877E+02  0.33764173877E+02  0.00000000000E+00 0.  1.
         25    2    1    2    0    0 -0.44408920985E-15  0.17763568394E-14  0.81926088264E+02  0.14945443602E+03  0.12499897802E+03 0.  0.
    9000006    2    3    3    0    0 -0.22573405154E+01 -0.67726687104E+01  0.21862211460E+02  0.64257395507E+02  0.60000766327E+02 0.  0.
    9000007    2    3    3    0    0  0.22573405154E+01  0.67726687104E+01  0.60063876805E+02  0.85197040511E+02  0.59999181555E+02 0.  0.
          5    1    4    4  501    0 -0.11712185706E+02  0.22652807882E+02  0.20342428439E+02  0.32957994383E+02  0.47000000000E+01 0.  1.
         -5    1    4    4    0  501  0.94548451908E+01 -0.29425476593E+02  0.15197830209E+01  0.31299401124E+02  0.47000000000E+01 0.  1.
         12    1    5    5    0    0 -0.83286304083E+00 -0.36619396227E+01 -0.11867279919E+02  0.12447320809E+02  0.00000000000E+00 0.  1.
        -12    1    5    5    0    0  0.30902035562E+01  0.10434608333E+02  0.71931156724E+02  0.72749719702E+02  0.00000000000E+00 0.  1.
<mgrwt>
<rscale>  0 0.12499898E+03</rscale>
<asrwt>0</asrwt>
<pdfrwt beam="1">  1       21 0.17798502E-01 0.12499898E+03</pdfrwt>
<pdfrwt beam="2">  1       21 0.51944883E-02 0.12499898E+03</pdfrwt>
<totfact> 0.70829644E+06</totfact>
</mgrwt>
</event>
<event>
 9    1  0.4541185E-002  0.1250041E+03  0.7818608E-02  0.1235063E+00
         21   -1    0    0  503  502  0.00000000000E+00  0.00000000000E+00  0.52138381482E+03  0.52138381482E+03  0.00000000000E+00 0. -1.
         21   -1    0    0  502  503 -0.00000000000E+00 -0.00000000000E+00 -0.74925752197E+01  0.74925752197E+01  0.00000000000E+00 0. -1.
         25    2    1    2    0    0  0.17763568394E-14 -0.17763568394E-14  0.51389123960E+03  0.52887639004E+03  0.12500411915E+03 0.  0.
    9000006    2    3    3    0    0 -0.95328657213E+01  0.14631002448E+02  0.25165499154E+03  0.25929756467E+03  0.60000420948E+02 0.  0.
    9000007    2    3    3    0    0  0.95328657213E+01 -0.14631002448E+02  0.26223624806E+03  0.26957882537E+03  0.59999596090E+02 0.  0.
          5    1    4    4  501    0 -0.72001774182E+01  0.28173243136E+01  0.24421563204E+03  0.24438319255E+03  0.47000000000E+01 0.  1.
         -5    1    4    4    0  501 -0.23326883031E+01  0.11813678134E+02  0.74393595054E+01  0.14914372117E+02  0.47000000000E+01 0.  1.
         12    1    5    5    0    0 -0.10863589402E+02 -0.22165723611E+02  0.22581900826E+03  0.22716417272E+03  0.00000000000E+00 0. -1.
        -12    1    5    5    0    0  0.20396455124E+02  0.75347211633E+01  0.36417239802E+02  0.42414652650E+02  0.00000000000E+00 0. -1.
<mgrwt>
<rscale>  0 0.12500412E+03</rscale>
<asrwt>0</asrwt>
<pdfrwt beam="1">  1       21 0.80212867E-01 0.12500412E+03</pdfrwt>
<pdfrwt beam="2">  1       21 0.11527043E-02 0.12500412E+03</pdfrwt>
<totfact> 0.40515981E+06</totfact>
</mgrwt>
</event>
<event>
 9    1  0.4541185E-002  0.1249993E+03  0.7818608E-02  0.1235070E+00
         21   -1    0    0  503  502  0.00000000000E+00  0.00000000000E+00  0.22261940784E+01  0.22261940784E+01  0.00000000000E+00 0.  1.
         21   -1    0    0  502  503 -0.00000000000E+00 -0.00000000000E+00 -0.17546577810E+04  0.17546577810E+04  0.00000000000E+00 0.  1.
         25    2    1    2    0    0  0.53290705182E-14  0.00000000000E+00 -0.17524315869E+04  0.17568839751E+04  0.12499934018E+03 0.  0.
    9000006    2    3    3    0    0 -0.15261543899E+02 -0.81377355129E+01 -0.91359396719E+03  0.91572543933E+03  0.60000049134E+02 0.  0.
    9000007    2    3    3    0    0  0.15261543899E+02  0.81377355129E+01 -0.83883761972E+03  0.84115853574E+03  0.59999937643E+02 0.  0.
          5    1    4    4  501    0 -0.71497059154E+01 -0.33848173949E+02 -0.47894909878E+03  0.48021989380E+03  0.47000000000E+01 0. -1.
         -5    1    4    4    0  501 -0.81118379835E+01  0.25710438436E+02 -0.43464486841E+03  0.43550554554E+03  0.47000000000E+01 0. -1.
         12    1    5    5    0    0  0.17683697562E+02  0.28748581864E+02 -0.69635903344E+03  0.69717651823E+03  0.00000000000E+00 0.  1.
        -12    1    5    5    0    0 -0.24221536631E+01 -0.20610846351E+02 -0.14247858628E+03  0.14398201750E+03  0.00000000000E+00 0.  1.
<mgrwt>
<rscale>  0 0.12499934E+03</rscale>
<asrwt>0</asrwt>
<pdfrwt beam="1">  1       21 0.34249156E-03 0.12499934E+03</pdfrwt>
<pdfrwt beam="2">  1       21 0.26994722E+00 0.12499934E+03</pdfrwt>
<totfact> 0.10575345E+06</totfact>
</mgrwt>
</event>
<event>
 9    1  0.4541185E-002  0.1249982E+03  0.7818608E-02  0.1235072E+00
         21   -1    0    0  503  502  0.00000000000E+00  0.00000000000E+00  0.77042976709E+01  0.77042976709E+01  0.00000000000E+00 0. -1.
         21   -1    0    0  502  503 -0.00000000000E+00 -0.00000000000E+00 -0.50700733620E+03  0.50700733620E+03  0.00000000000E+00 0. -1.
         25    2    1    2    0    0 -0.44408920985E-15  0.00000000000E+00 -0.49930303853E+03  0.51471163387E+03  0.12499816702E+03 0.  0.
    9000006    2    3    3    0    0 -0.33860299899E+01 -0.51513512727E+01 -0.31707451780E+03  0.32276049310E+03  0.60000703704E+02 0.  0.
    9000007    2    3    3    0    0  0.33860299899E+01  0.51513512727E+01 -0.18222852073E+03  0.19195114078E+03  0.60000042163E+02 0.  0.
          5    1    4    4  501    0  0.24904071043E+02 -0.14571412948E+02 -0.12834710323E+03  0.13163437142E+03  0.47000000000E+01 0. -1.
         -5    1    4    4    0  501 -0.28290101033E+02  0.94200616756E+01 -0.18872741457E+03  0.19112612168E+03  0.47000000000E+01 0. -1.
         12    1    5    5    0    0 -0.27650686956E+01  0.19610879330E+02 -0.17214507705E+03  0.17328058098E+03  0.00000000000E+00 0. -1.
        -12    1    5    5    0    0  0.61510986855E+01 -0.14459528057E+02 -0.10083443682E+02  0.18670559798E+02  0.00000000000E+00 0. -1.
<mgrwt>
<rscale>  0 0.12499817E+03</rscale>
<asrwt>0</asrwt>
<pdfrwt beam="1">  1       21 0.11852765E-02 0.12499817E+03</pdfrwt>
<pdfrwt beam="2">  1       21 0.78001131E-01 0.12499817E+03</pdfrwt>
<totfact> 0.41259183E+06</totfact>
</mgrwt>
</event>
<event>
 9    1  0.4541185E-002  0.1250004E+03  0.7818608E-02  0.1235069E+00
         21   -1    0    0  503  502  0.00000000000E+00  0.00000000000E+00  0.44290914803E+02  0.44290914803E+02  0.00000000000E+00 0. -1.
         21   -1    0    0  502  503 -0.00000000000E+00 -0.00000000000E+00 -0.88195847399E+02  0.88195847399E+02  0.00000000000E+00 0. -1.
         25    2    1    2    0    0 -0.17763568394E-14  0.88817841970E-15 -0.43904932596E+02  0.13248676220E+03  0.12500039621E+03 0.  0.
    9000006    2    3    3    0    0  0.19133806020E+01  0.28037707606E+01 -0.40169319904E+02  0.72285189169E+02  0.60000434630E+02 0.  0.
    9000007    2    3    3    0    0 -0.19133806020E+01 -0.28037707606E+01 -0.37356126915E+01  0.60201573034E+02  0.59989602747E+02 0.  0.
          5    1    4    4  501    0  0.29439684463E+02  0.96640624178E+01 -0.20683254925E+02  0.37549649239E+02  0.47000000000E+01 0. -1.
         -5    1    4    4    0  501 -0.27526303861E+02 -0.68602916572E+01 -0.19486064979E+02  0.34735539930E+02  0.47000000000E+01 0. -1.
         12    1    5    5    0    0 -0.32435398165E+00  0.28314252310E+02 -0.60568934579E+01  0.28956658090E+02  0.00000000000E+00 0. -1.
        -12    1    5    5    0    0 -0.15890266203E+01 -0.31118023071E+02  0.23212807664E+01  0.31244914944E+02  0.00000000000E+00 0. -1.
<mgrwt>
<rscale>  0 0.12500040E+03</rscale>
<asrwt>0</asrwt>
<pdfrwt beam="1">  1       21 0.68139869E-02 0.12500040E+03</pdfrwt>
<pdfrwt beam="2">  1       21 0.13568592E-01 0.12500040E+03</pdfrwt>
<totfact> 0.73030272E+06</totfact>
</mgrwt>
</event>
<event>
 9    1  0.4541185E-002  0.1250023E+03  0.7818608E-02  0.1235066E+00
         21   -1    0    0  503  502  0.00000000000E+00  0.00000000000E+00  0.82468863037E+02  0.82468863037E+02  0.00000000000E+00 0. -1.
         21   -1    0    0  502  503 -0.00000000000E+00 -0.00000000000E+00 -0.47368124044E+02  0.47368124044E+02  0.00000000000E+00 0. -1.
         25    2    1    2    0    0  0.00000000000E+00 -0.88817841970E-15  0.35100738993E+02  0.12983698708E+03  0.12500232532E+03 0.  0.
    9000006    2    3    3    0    0 -0.81864371630E+01 -0.46521017554E+01  0.32881157319E+02  0.69062032449E+02  0.59997783419E+02 0.  0.
    9000007    2    3    3    0    0  0.81864371630E+01  0.46521017554E+01  0.22195816742E+01  0.60774954631E+02  0.60000073029E+02 0.  0.
          5    1    4    4  501    0 -0.21672777343E+02 -0.36097494495E+01 -0.94496798767E+01  0.24374700380E+02  0.47000000000E+01 0. -1.
         -5    1    4    4    0  501  0.13486340180E+02 -0.10423523059E+01  0.42330837195E+02  0.44687332069E+02  0.47000000000E+01 0. -1.
         12    1    5    5    0    0  0.33133347529E+02 -0.23237894534E+01  0.81518757731E+01  0.34200464829E+02  0.00000000000E+00 0. -1.
        -12    1    5    5    0    0 -0.24946910366E+02  0.69758912088E+01 -0.59322940989E+01  0.26574489802E+02  0.00000000000E+00 0. -1.
<mgrwt>
<rscale>  0 0.12500233E+03</rscale>
<asrwt>0</asrwt>
<pdfrwt beam="1">  1       21 0.12687517E-01 0.12500233E+03</pdfrwt>
<pdfrwt beam="2">  1       21 0.72874037E-02 0.12500233E+03</pdfrwt>
<totfact> 0.73382353E+06</totfact>
</mgrwt>
</event>
<event>
 9    1  0.4541185E-002  0.1249983E+03  0.7818608E-02  0.1235072E+00
         21   -1    0    0  503  502  0.00000000000E+00  0.00000000000E+00  0.27571220559E+04  0.27571220559E+04  0.00000000000E+00 0.  1.
         21   -1    0    0  502  503 -0.00000000000E+00 -0.00000000000E+00 -0.14167470354E+01  0.14167470354E+01  0.00000000000E+00 0.  1.
         25    2    1    2    0    0  0.00000000000E+00 -0.17763568394E-14  0.27557053089E+04  0.27585388030E+04  0.12499831197E+03 0.  0.
    9000006    2    3    3    0    0  0.65617340164E+01  0.13569528349E+01  0.17344863278E+04  0.17355367200E+04  0.59999894018E+02 0.  0.
    9000007    2    3    3    0    0 -0.65617340164E+01 -0.13569528349E+01  0.10212189811E+04  0.10230020830E+04  0.60001306980E+02 0.  0.
          5    1    4    4  501    0  0.13522618589E+02  0.13464170410E+02  0.16183497697E+04  0.16184690952E+04  0.47000000000E+01 0. -1.
         -5    1    4    4    0  501 -0.69608845722E+01 -0.12107217575E+02  0.11613655811E+03  0.11706762474E+03  0.47000000000E+01 0. -1.
         12    1    5    5    0    0 -0.14964042451E+02 -0.17962180106E+02  0.90505026250E+03  0.90535216360E+03  0.00000000000E+00 0. -1.
        -12    1    5    5    0    0  0.84023084350E+01  0.16605227271E+02  0.11616871856E+03  0.11764991939E+03  0.00000000000E+00 0. -1.
<mgrwt>
<rscale>  0 0.12499831E+03</rscale>
<asrwt>0</asrwt>
<pdfrwt beam="1">  1       21 0.42416833E+00 0.12499831E+03</pdfrwt>
<pdfrwt beam="2">  1       21 0.21796329E-03 0.12499831E+03</pdfrwt>
<totfact> 0.26610048E+05</totfact>
</mgrwt>
</event>
<event>
 9    1  0.4541185E-002  0.1250047E+03  0.7818608E-02  0.1235062E+00
         21   -1    0    0  503  502  0.00000000000E+00  0.00000000000E+00  0.28426788295E+03  0.28426788295E+03  0.00000000000E+00 0. -1.
         21   -1    0    0  502  503 -0.00000000000E+00 -0.00000000000E+00 -0.13742465195E+02  0.13742465195E+02  0.00000000000E+00 0. -1.
         25    2    1    2    0    0  0.00000000000E+00  0.17763568394E-14  0.27052541776E+03  0.29801034815E+03  0.12500466371E+03 0.  0.
    9000006    2    3    3    0    0 -0.95258637014E+01 -0.10720330901E+01  0.10035873413E+03  0.11732037978E+03  0.60002538801E+02 0.  0.
    9000007    2    3    3    0    0  0.95258637014E+01  0.10720330901E+01  0.17016668363E+03  0.18068996836E+03  0.60002275919E+02 0.  0.
          5    1    4    4  501    0 -0.34282163678E+02 -0.55552165008E+01  0.61658635906E+02  0.70922525044E+02  0.47000000000E+01 0. -1.
         -5    1    4    4    0  501  0.24756299977E+02  0.44831834107E+01  0.38700098221E+02  0.46397854739E+02  0.47000000000E+01 0. -1.
         12    1    5    5    0    0 -0.14696723283E+02  0.17953915768E+02  0.32742550681E+02  0.40129931370E+02  0.00000000000E+00 0. -1.
        -12    1    5    5    0    0  0.24222586985E+02 -0.16881882678E+02  0.13742413295E+03  0.14056003699E+03  0.00000000000E+00 0. -1.
<mgrwt>
<rscale>  0 0.12500466E+03</rscale>
<asrwt>0</asrwt>
<pdfrwt beam="1">  1       21 0.43733516E-01 0.12500466E+03</pdfrwt>
<pdfrwt beam="2">  1       21 0.21142256E-02 0.12500466E+03</pdfrwt>
<totfact> 0.55615412E+06</totfact>
</mgrwt>
</event>
<event>
 9    1  0.4541185E-002  0.1249997E+03  0.7818608E-02  0.1235070E+00
         21   -1    0    0  503  502  0.00000000000E+00  0.00000000000E+00  0.18786603911E+03  0.18786603911E+03  0.00000000000E+00 0.  1.
         21   -1    0    0  502  503 -0.00000000000E+00 -0.00000000000E+00 -0.20792653445E+02  0.20792653445E+02  0.00000000000E+00 0.  1.
         25    2    1    2    0    0 -0.88817841970E-15 -0.17763568394E-14  0.16707338567E+03  0.20865869256E+03  0.12499973513E+03 0.  0.
    9000006    2    3    3    0    0  0.69200458477E+01 -0.87594938313E+01  0.61022681565E+02  0.86301771875E+02  0.59996769885E+02 0.  0.
    9000007    2    3    3    0    0 -0.69200458477E+01  0.87594938313E+01  0.10605070410E+03  0.12235692068E+03  0.59998736919E+02 0.  0.
          5    1    4    4  501    0 -0.13912715765E+01 -0.11264806964E+01  0.70596073910E+02  0.70774997328E+02  0.47000000000E+01 0.  1.
         -5    1    4    4    0  501  0.83113174242E+01 -0.76330131350E+01 -0.95733923443E+01  0.15526774547E+02  0.47000000000E+01 0.  1.
         12    1    5    5    0    0  0.49040623947E+01 -0.24188223796E+02  0.56831174380E+02  0.61958876521E+02  0.00000000000E+00 0.  1.
        -12    1    5    5    0    0 -0.11824108242E+02  0.32947717627E+02  0.49219529722E+02  0.60398044162E+02  0.00000000000E+00 0.  1.
<mgrwt>
<rscale>  0 0.12499974E+03</rscale>
<asrwt>0</asrwt>
<pdfrwt beam="1">  1       21 0.28902466E-01 0.12499974E+03</pdfrwt>
<pdfrwt beam="2">  1       21 0.31988699E-02 0.12499974E+03</pdfrwt>
<totfact> 0.64001363E+06</totfact>
</mgrwt>
</event>
<event>
 9    1  0.4541185E-002  0.1250078E+03  0.7818608E-02  0.1235057E+00
         21   -1    0    0  503  502  0.00000000000E+00  0.00000000000E+00  0.27309473500E+03  0.27309473500E+03  0.00000000000E+00 0.  1.
         21   -1    0    0  502  503 -0.00000000000E+00 -0.00000000000E+00 -0.14305425178E+02  0.14305425178E+02  0.00000000000E+00 0.  1.
         25    2    1    2    0    0  0.88817841970E-15 -0.71054273576E-14  0.25878930982E+03  0.28740016018E+03  0.12500778053E+03 0.  0.
    9000006    2    3    3    0    0 -0.63321589082E+01 -0.16270974239E+02  0.12623365916E+03  0.14085379250E+03  0.60000110989E+02 0.  0.
    9000007    2    3    3    0    0  0.63321589082E+01  0.16270974239E+02  0.13255565067E+03  0.14654636768E+03  0.59999970974E+02 0.  0.
          5    1    4    4  501    0  0.14682337037E+01 -0.35976949623E+02  0.10224024612E+03  0.10849725591E+03  0.47000000000E+01 0.  1.
         -5    1    4    4    0  501 -0.78003926119E+01  0.19705975385E+02  0.23993413042E+02  0.32356536591E+02  0.47000000000E+01 0.  1.
         12    1    5    5    0    0 -0.26844872912E+02  0.53251187816E+01  0.63862841685E+02  0.69479972940E+02  0.00000000000E+00 0.  1.
        -12    1    5    5    0    0  0.33177031820E+02  0.10945855457E+02  0.68692808982E+02  0.77066394738E+02  0.00000000000E+00 0.  1.
<mgrwt>
<rscale>  0 0.12500778E+03</rscale>
<asrwt>0</asrwt>
<pdfrwt beam="1">  1       21 0.42014571E-01 0.12500778E+03</pdfrwt>
<pdfrwt beam="2">  1       21 0.22008348E-02 0.12500778E+03</pdfrwt>
<totfact> 0.56508744E+06</totfact>
</mgrwt>
</event>
<event>
 9    1  0.4541185E-002  0.1250025E+03  0.7818608E-02  0.1235065E+00
         21   -1    0    0  503  502  0.00000000000E+00  0.00000000000E+00  0.43813219109E+02  0.43813219109E+02  0.00000000000E+00 0.  1.
         21   -1    0    0  502  503 -0.00000000000E+00 -0.00000000000E+00 -0.89160507417E+02  0.89160507417E+02  0.00000000000E+00 0.  1.
         25    2    1    2    0    0  0.17763568394E-14  0.13322676296E-14 -0.45347288308E+02  0.13297372653E+03  0.12500254153E+03 0.  0.
    9000006    2    3    3    0    0  0.95360149770E+01  0.40134801995E-01 -0.70600677894E+01  0.61161719685E+02  0.59999785043E+02 0.  0.
    9000007    2    3    3    0    0 -0.95360149770E+01 -0.40134801995E-01 -0.38287220518E+02  0.71812006841E+02  0.60000965651E+02 0.  0.
          5    1    4    4  501    0  0.94563799174E+01  0.29039067099E+02 -0.74367928714E+01  0.31781856889E+02  0.47000000000E+01 0. -1.
         -5    1    4    4    0  501  0.79635059602E-01 -0.28998932297E+02  0.37672508200E+00  0.29379862796E+02  0.47000000000E+01 0. -1.
         12    1    5    5    0    0 -0.29002359152E+02  0.35722931975E+01 -0.42493656584E+02  0.51571396772E+02  0.00000000000E+00 0.  1.
        -12    1    5    5    0    0  0.19466344175E+02 -0.36124279995E+01  0.42064360659E+01  0.20240610069E+02  0.00000000000E+00 0.  1.
<mgrwt>
<rscale>  0 0.12500254E+03</rscale>
<asrwt>0</asrwt>
<pdfrwt beam="1">  1       21 0.67404954E-02 0.12500254E+03</pdfrwt>
<pdfrwt beam="2">  1       21 0.13717001E-01 0.12500254E+03</pdfrwt>
<totfact> 0.72961176E+06</totfact>
</mgrwt>
</event>
<event>
 9    1  0.4541185E-002  0.1249984E+03  0.7818608E-02  0.1235072E+00
         21   -1    0    0  503  502  0.00000000000E+00  0.00000000000E+00  0.41275162271E+03  0.41275162271E+03  0.00000000000E+00 0.  1.
         21   -1    0    0  502  503 -0.00000000000E+00 -0.00000000000E+00 -0.94636851155E+01  0.94636851155E+01  0.00000000000E+00 0.  1.
         25    2    1    2    0    0  0.00000000000E+00  0.00000000000E+00  0.40328793760E+03  0.42221530783E+03  0.12499842220E+03 0.  0.
    9000006    2    3    3    0    0  0.94651567365E+01  0.38943048419E+01  0.24956650055E+03  0.25688162059E+03  0.59999783304E+02 0.  0.
    9000007    2    3    3    0    0 -0.94651567365E+01 -0.38943048419E+01  0.15372143705E+03  0.16533368724E+03  0.60001609367E+02 0.  0.
          5    1    4    4  501    0 -0.21075748872E+02 -0.29660981838E+01  0.46402123059E+02  0.51266284762E+02  0.47000000000E+01 0.  1.
         -5    1    4    4    0  501  0.30540905608E+02  0.68604030258E+01  0.20316437749E+03  0.20561533583E+03  0.47000000000E+01 0.  1.
         12    1    5    5    0    0  0.15659218375E+02 -0.35960046089E+00  0.12887063664E+03  0.12981903336E+03  0.00000000000E+00 0. -1.
        -12    1    5    5    0    0 -0.25124375111E+02 -0.35347043811E+01  0.24850800401E+02  0.35514653882E+02  0.00000000000E+00 0. -1.
<mgrwt>
<rscale>  0 0.12499842E+03</rscale>
<asrwt>0</asrwt>
<pdfrwt beam="1">  1       21 0.63500236E-01 0.12499842E+03</pdfrwt>
<pdfrwt beam="2">  1       21 0.14559519E-02 0.12499842E+03</pdfrwt>
<totfact> 0.46603757E+06</totfact>
</mgrwt>
</event>
<event>
 9    1  0.4541185E-002  0.1249993E+03  0.7818608E-02  0.1235070E+00
         21   -1    0    0  503  502  0.00000000000E+00  0.00000000000E+00  0.11379928839E+03  0.11379928839E+03  0.00000000000E+00 0. -1.
         21   -1    0    0  502  503 -0.00000000000E+00 -0.00000000000E+00 -0.34325410386E+02  0.34325410386E+02  0.00000000000E+00 0. -1.
         25    2    1    2    0    0 -0.35527136788E-14  0.00000000000E+00  0.79473878006E+02  0.14812469878E+03  0.12499931641E+03 0.  0.
    9000006    2    3    3    0    0  0.10584321728E+02 -0.51425050161E+01  0.24376527971E+02  0.65819651924E+02  0.59996151870E+02 0.  0.
    9000007    2    3    3    0    0 -0.10584321728E+02  0.51425050161E+01  0.55097350035E+02  0.82305046853E+02  0.59999412767E+02 0.  0.
          5    1    4    4  501    0  0.10828944508E+02 -0.16199533065E+02  0.40806667071E+02  0.45463886637E+02  0.47000000000E+01 0. -1.
         -5    1    4    4    0  501 -0.24462278080E+00  0.11057028049E+02 -0.16430139100E+02  0.20355765287E+02  0.47000000000E+01 0. -1.
         12    1    5    5    0    0  0.22104934229E+02  0.13647458038E+02  0.32757227034E+02  0.41808099109E+02  0.00000000000E+00 0.  1.
        -12    1    5    5    0    0 -0.32689255957E+02 -0.85049530215E+01  0.22340123001E+02  0.40496947744E+02  0.00000000000E+00 0.  1.
<mgrwt>
<rscale>  0 0.12499932E+03</rscale>
<asrwt>0</asrwt>
<pdfrwt beam="1">  1       21 0.17507583E-01 0.12499932E+03</pdfrwt>
<pdfrwt beam="2">  1       21 0.52808324E-02 0.12499932E+03</pdfrwt>
<totfact> 0.70996810E+06</totfact>
</mgrwt>
</event>
<event>
 9    1  0.4541185E-002  0.1249840E+03  0.7818608E-02  0.1235094E+00
         21   -1    0    0  503  502  0.00000000000E+00  0.00000000000E+00  0.14256331342E+03  0.14256331342E+03  0.00000000000E+00 0. -1.
         21   -1    0    0  502  503 -0.00000000000E+00 -0.00000000000E+00 -0.27393095492E+02  0.27393095492E+02  0.00000000000E+00 0. -1.
         25    2    1    2    0    0  0.00000000000E+00  0.00000000000E+00  0.11517021793E+03  0.16995640892E+03  0.12498400631E+03 0.  0.
    9000006    2    3    3    0    0 -0.30195647930E+01 -0.17050354575E+02  0.54411468515E+02  0.82827181068E+02  0.59999180454E+02 0.  0.
    9000007    2    3    3    0    0  0.30195647930E+01  0.17050354575E+02  0.60758749417E+02  0.87129227848E+02  0.60000369599E+02 0.  0.
          5    1    4    4  501    0  0.99339467740E+01 -0.27517476910E+02  0.58021965393E+02  0.65150082901E+02  0.47000000000E+01 0. -1.
         -5    1    4    4    0  501 -0.12953511567E+02  0.10467122335E+02 -0.36104968782E+01  0.17677098167E+02  0.47000000000E+01 0. -1.
         12    1    5    5    0    0 -0.22939349183E+02 -0.30063672311E+01  0.45297539174E+02  0.50863730104E+02  0.00000000000E+00 0. -1.
        -12    1    5    5    0    0  0.25958913976E+02  0.20056721806E+02  0.15461210243E+02  0.36265497744E+02  0.00000000000E+00 0. -1.
<mgrwt>
<rscale>  0 0.12498401E+03</rscale>
<asrwt>0</asrwt>
<pdfrwt beam="1">  1       21 0.21932817E-01 0.12498401E+03</pdfrwt>
<pdfrwt beam="2">  1       21 0.42143225E-02 0.12498401E+03</pdfrwt>
<totfact> 0.68350552E+06</totfact>
</mgrwt>
</event>
<event>
 9    1  0.4541185E-002  0.1249984E+03  0.7818608E-02  0.1235072E+00
         21   -1    0    0  503  502  0.00000000000E+00  0.00000000000E+00  0.43281808415E+02  0.43281808415E+02  0.00000000000E+00 0. -1.
         21   -1    0    0  502  503 -0.00000000000E+00 -0.00000000000E+00 -0.90249261186E+02  0.90249261186E+02  0.00000000000E+00 0. -1.
         25    2    1    2    0    0 -0.35527136788E-14  0.00000000000E+00 -0.46967452771E+02  0.13353106960E+03  0.12499841971E+03 0.  0.
    9000006    2    3    3    0    0 -0.91436940629E+01 -0.82558187142E+01 -0.36756614375E+02  0.71434424604E+02  0.60000521951E+02 0.  0.
    9000007    2    3    3    0    0  0.91436940629E+01  0.82558187142E+01 -0.10210838396E+02  0.62096644998E+02  0.59999720128E+02 0.  0.
          5    1    4    4  501    0 -0.10276507821E+02 -0.20169265582E+02  0.83118434726E+01  0.24567918695E+02  0.47000000000E+01 0.  1.
         -5    1    4    4    0  501  0.11328137583E+01  0.11913446867E+02 -0.45068457848E+02  0.46866505908E+02  0.47000000000E+01 0.  1.
         12    1    5    5    0    0  0.33113827706E+02 -0.32431994916E+01 -0.12195867135E+02  0.35437030116E+02  0.00000000000E+00 0.  1.
        -12    1    5    5    0    0 -0.23970133643E+02  0.11499018206E+02  0.19850287386E+01  0.26659614882E+02  0.00000000000E+00 0.  1.
<mgrwt>
<rscale>  0 0.12499842E+03</rscale>
<asrwt>0</asrwt>
<pdfrwt beam="1">  1       21 0.66587398E-02 0.12499842E+03</pdfrwt>
<pdfrwt beam="2">  1       21 0.13884502E-01 0.12499842E+03</pdfrwt>
<totfact> 0.72894503E+06</totfact>
</mgrwt>
</event>
<event>
 9    1  0.4541185E-002  0.1249959E+03  0.7818608E-02  0.1235076E+00
         21   -1    0    0  503  502  0.00000000000E+00  0.00000000000E+00  0.79302916100E+01  0.79302916100E+01  0.00000000000E+00 0. -1.
         21   -1    0    0  502  503 -0.00000000000E+00 -0.00000000000E+00 -0.49254123585E+03  0.49254123585E+03  0.00000000000E+00 0. -1.
         25    2    1    2    0    0  0.00000000000E+00  0.00000000000E+00 -0.48461094424E+03  0.50047152746E+03  0.12499593002E+03 0.  0.
    9000006    2    3    3    0    0  0.10568042037E+02  0.12872817264E+02 -0.22090276635E+03  0.22951124913E+03  0.59999902997E+02 0.  0.
    9000007    2    3    3    0    0 -0.10568042037E+02 -0.12872817264E+02 -0.26370817790E+03  0.27096027834E+03  0.60000636742E+02 0.  0.
          5    1    4    4  501    0  0.31550749915E+02  0.71317628172E+01 -0.18001784623E+03  0.18296127137E+03  0.47000000000E+01 0. -1.
         -5    1    4    4    0  501 -0.20982707878E+02  0.57410544466E+01 -0.40884920120E+02  0.46549977758E+02  0.47000000000E+01 0. -1.
         12    1    5    5    0    0 -0.18921671796E+02  0.17300615728E+02 -0.17545133918E+03  0.17731472976E+03  0.00000000000E+00 0. -1.
        -12    1    5    5    0    0  0.83536297587E+01 -0.30173432992E+02 -0.88256838714E+02  0.93645548578E+02  0.00000000000E+00 0. -1.
<mgrwt>
<rscale>  0 0.12499593E+03</rscale>
<asrwt>0</asrwt>
<pdfrwt beam="1">  1       21 0.12200447E-02 0.12499593E+03</pdfrwt>
<pdfrwt beam="2">  1       21 0.75775583E-01 0.12499593E+03</pdfrwt>
<totfact> 0.42022765E+06</totfact>
</mgrwt>
</event>
<event>
 9    1  0.4541185E-002  0.1250010E+03  0.7818608E-02  0.1235068E+00
         21   -1    0    0  503  502  0.00000000000E+00  0.00000000000E+00  0.82908779594E+02  0.82908779594E+02  0.00000000000E+00 0.  1.
         21   -1    0    0  502  503 -0.00000000000E+00 -0.00000000000E+00 -0.47115809714E+02  0.47115809714E+02  0.00000000000E+00 0.  1.
         25    2    1    2    0    0 -0.26645352591E-14  0.00000000000E+00  0.35792969880E+02  0.13002458931E+03  0.12500102852E+03 0.  0.
    9000006    2    3    3    0    0 -0.67417770930E+01  0.15660298685E+02  0.22014253932E+02  0.66145159548E+02  0.59998818674E+02 0.  0.
    9000007    2    3    3    0    0  0.67417770930E+01 -0.15660298685E+02  0.13778715948E+02  0.63879429760E+02  0.60000266833E+02 0.  0.
          5    1    4    4  501    0  0.21532650960E+02  0.52303285466E+01 -0.73419771004E+01  0.23811888245E+02  0.47000000000E+01 0.  1.
         -5    1    4    4    0  501 -0.28274428053E+02  0.10429970138E+02  0.29356231032E+02  0.42333271303E+02  0.47000000000E+01 0.  1.
         12    1    5    5    0    0  0.32077407962E+01 -0.31124144154E+02 -0.12082593470E+02  0.33540885726E+02  0.00000000000E+00 0.  1.
        -12    1    5    5    0    0  0.35340362968E+01  0.15463845469E+02  0.25861309419E+02  0.30338544034E+02  0.00000000000E+00 0.  1.
<mgrwt>
<rscale>  0 0.12500103E+03</rscale>
<asrwt>0</asrwt>
<pdfrwt beam="1">  1       21 0.12755197E-01 0.12500103E+03</pdfrwt>
<pdfrwt beam="2">  1       21 0.72485861E-02 0.12500103E+03</pdfrwt>
<totfact> 0.73359702E+06</totfact>
</mgrwt>
</event>
<event>
 9    1  0.4541185E-002  0.1250004E+03  0.7818608E-02  0.1235069E+00
         21   -1    0    0  503  502  0.00000000000E+00  0.00000000000E+00  0.40021912639E+02  0.40021912639E+02  0.00000000000E+00 0.  1.
         21   -1    0    0  502  503 -0.00000000000E+00 -0.00000000000E+00 -0.97603400657E+02  0.97603400657E+02  0.00000000000E+00 0.  1.
         25    2    1    2    0    0 -0.88817841970E-15  0.17763568394E-14 -0.57581488017E+02  0.13762531330E+03  0.12500039639E+03 0.  0.
    9000006    2    3    3    0    0 -0.61026390180E+01  0.13158928856E+02 -0.39571844651E+02  0.73322003460E+02  0.59998214063E+02 0.  0.
    9000007    2    3    3    0    0  0.61026390180E+01 -0.13158928856E+02 -0.18009643366E+02  0.64303309836E+02  0.60001406567E+02 0.  0.
          5    1    4    4  501    0 -0.27814189996E+01  0.23115325454E+02 -0.51524412899E+02  0.56735435903E+02  0.47000000000E+01 0.  1.
         -5    1    4    4    0  501 -0.33212200184E+01 -0.99563965983E+01  0.11952568248E+02  0.16586567558E+02  0.47000000000E+01 0.  1.
         12    1    5    5    0    0  0.80198204586E+01  0.29531596169E+01  0.20665190269E+02  0.22362664438E+02  0.00000000000E+00 0.  1.
        -12    1    5    5    0    0 -0.19171814406E+01 -0.16112088473E+02 -0.38674833636E+02  0.41940645398E+02  0.00000000000E+00 0.  1.
<mgrwt>
<rscale>  0 0.12500040E+03</rscale>
<asrwt>0</asrwt>
<pdfrwt beam="1">  1       21 0.61572174E-02 0.12500040E+03</pdfrwt>
<pdfrwt beam="2">  1       21 0.15015908E-01 0.12500040E+03</pdfrwt>
<totfact> 0.72349961E+06</totfact>
</mgrwt>
</event>
<event>
 9    1  0.4541185E-002  0.1249997E+03  0.7818608E-02  0.1235070E+00
         21   -1    0    0  503  502  0.00000000000E+00  0.00000000000E+00  0.21134314225E+02  0.21134314225E+02  0.00000000000E+00 0. -1.
         21   -1    0    0  502  503 -0.00000000000E+00 -0.00000000000E+00 -0.18482894788E+03  0.18482894788E+03  0.00000000000E+00 0. -1.
         25    2    1    2    0    0  0.00000000000E+00  0.17763568394E-14 -0.16369463365E+03  0.20596326211E+03  0.12499972900E+03 0.  0.
    9000006    2    3    3    0    0  0.16930780252E+02 -0.13081716859E+01 -0.74895197518E+02  0.97456378724E+02  0.60000770907E+02 0.  0.
    9000007    2    3    3    0    0 -0.16930780252E+02  0.13081716859E+01 -0.88799436136E+02  0.10850688338E+03  0.60000343749E+02 0.  0.
          5    1    4    4  501    0 -0.21293432554E+02  0.70327751613E+01 -0.25856167508E+02  0.34547092419E+02  0.47000000000E+01 0. -1.
         -5    1    4    4    0  501  0.38224212806E+02 -0.83409468472E+01 -0.49039030011E+02  0.62909286305E+02  0.47000000000E+01 0. -1.
         12    1    5    5    0    0  0.22935537521E+01 -0.24027981494E+02 -0.15714840557E+02  0.28802091890E+02  0.00000000000E+00 0.  1.
        -12    1    5    5    0    0 -0.19224334004E+02  0.25336153180E+02 -0.73084595579E+02  0.79704791492E+02  0.00000000000E+00 0.  1.
<mgrwt>
<rscale>  0 0.12499973E+03</rscale>
<asrwt>0</asrwt>
<pdfrwt beam="1">  1       21 0.32514329E-02 0.12499973E+03</pdfrwt>
<pdfrwt beam="2">  1       21 0.28435223E-01 0.12499973E+03</pdfrwt>
<totfact> 0.64287206E+06</totfact>
</mgrwt>
</event>
<event>
 9    1  0.4541185E-002  0.1249980E+03  0.7818608E-02  0.1235072E+00
         21   -1    0    0  503  502  0.00000000000E+00  0.00000000000E+00  0.41332447420E+03  0.41332447420E+03  0.00000000000E+00 0.  1.
         21   -1    0    0  502  503 -0.00000000000E+00 -0.00000000000E+00 -0.94504979653E+01  0.94504979653E+01  0.00000000000E+00 0.  1.
         25    2    1    2    0    0 -0.17763568394E-14 -0.53290705182E-14  0.40387397623E+03  0.42277497217E+03  0.12499795362E+03 0.  0.
    9000006    2    3    3    0    0 -0.75720026007E+01 -0.15301567899E+02  0.18899864812E+03  0.19902748889E+03  0.59999826172E+02 0.  0.
    9000007    2    3    3    0    0  0.75720026007E+01  0.15301567899E+02  0.21487532812E+03  0.22374748328E+03  0.60000470285E+02 0.  0.
          5    1    4    4  501    0 -0.67256335374E+01  0.21980301755E+02  0.53627596062E+02  0.58535261775E+02  0.47000000000E+01 0. -1.
         -5    1    4    4    0  501 -0.84636906326E+00 -0.37281869654E+02  0.13537105205E+03  0.14049222712E+03  0.47000000000E+01 0. -1.
         12    1    5    5    0    0 -0.22843175764E+02  0.50785788929E+01  0.43507292664E+02  0.49401287002E+02  0.00000000000E+00 0.  1.
        -12    1    5    5    0    0  0.30415178365E+02  0.10222989006E+02  0.17136803546E+03  0.17434619627E+03  0.00000000000E+00 0.  1.
<mgrwt>
<rscale>  0 0.12499795E+03</rscale>
<asrwt>0</asrwt>
<pdfrwt beam="1">  1       21 0.63588367E-01 0.12499795E+03</pdfrwt>
<pdfrwt beam="2">  1       21 0.14539231E-02 0.12499795E+03</pdfrwt>
<totfact> 0.46568896E+06</totfact>
</mgrwt>
</event>
<event>
 9    1  0.4541185E-002  0.1250007E+03  0.7818608E-02  0.1235068E+00
         21   -1    0    0  503  502  0.00000000000E+00  0.00000000000E+00  0.47577769570E+01  0.47577769570E+01  0.00000000000E+00 0.  1.
         21   -1    0    0  502  503 -0.00000000000E+00 -0.00000000000E+00 -0.82103342738E+03  0.82103342738E+03  0.00000000000E+00 0.  1.
         25    2    1    2    0    0 -0.17763568394E-14 -0.17763568394E-14 -0.81627565042E+03  0.82579120434E+03  0.12500070275E+03 0.  0.
    9000006    2    3    3    0    0  0.15654636273E+02 -0.76683378344E+01 -0.41830036196E+03  0.42294096566E+03  0.59999971451E+02 0.  0.
    9000007    2    3    3    0    0 -0.15654636273E+02  0.76683378344E+01 -0.39797528846E+03  0.40285023868E+03  0.60000946112E+02 0.  0.
          5    1    4    4  501    0  0.23227790075E+02  0.15145999714E+02 -0.10554834717E+03  0.10923129189E+03  0.47000000000E+01 0. -1.
         -5    1    4    4    0  501 -0.75731538020E+01 -0.22814337548E+02 -0.31275201479E+03  0.31370967376E+03  0.47000000000E+01 0. -1.
         12    1    5    5    0    0 -0.95184577120E+01 -0.26080304402E+02 -0.15519857700E+03  0.15766223904E+03  0.00000000000E+00 0.  1.
        -12    1    5    5    0    0 -0.61361785615E+01  0.33748642237E+02 -0.24277671146E+03  0.24518799964E+03  0.00000000000E+00 0.  1.
<mgrwt>
<rscale>  0 0.12500070E+03</rscale>
<asrwt>0</asrwt>
<pdfrwt beam="1">  1       21 0.73196553E-03 0.12500070E+03</pdfrwt>
<pdfrwt beam="2">  1       21 0.12631286E+00 0.12500070E+03</pdfrwt>
<totfact> 0.28525436E+06</totfact>
</mgrwt>
</event>
<event>
 9    1  0.4541185E-002  0.1250462E+03  0.7818608E-02  0.1234997E+00
         21   -1    0    0  503  502  0.00000000000E+00  0.00000000000E+00  0.52217545830E+02  0.52217545830E+02  0.00000000000E+00 0. -1.
         21   -1    0    0  502  503 -0.00000000000E+00 -0.00000000000E+00 -0.74862489175E+02  0.74862489175E+02  0.00000000000E+00 0. -1.
         25    2    1    2    0    0  0.00000000000E+00  0.00000000000E+00 -0.22644943345E+02  0.12708003500E+03  0.12504615883E+03 0.  0.
    9000006    2    3    3    0    0 -0.25514546154E+01  0.96517925279E+01  0.33849797915E+01  0.60919467328E+02  0.60000469929E+02 0.  0.
    9000007    2    3    3    0    0  0.25514546154E+01 -0.96517925279E+01 -0.26029923136E+02  0.66160567676E+02  0.59999973309E+02 0.  0.
          5    1    4    4  501    0  0.13643898562E+02 -0.18236648281E+02  0.13380941125E+02  0.26830409872E+02  0.47000000000E+01 0.  1.
         -5    1    4    4    0  501 -0.16195353178E+02  0.27888440809E+02 -0.99959613335E+01  0.34089057456E+02  0.47000000000E+01 0.  1.
         12    1    5    5    0    0 -0.16214315848E+02  0.10941940793E+02 -0.32151693349E+02  0.37634578408E+02  0.00000000000E+00 0. -1.
        -12    1    5    5    0    0  0.18765770464E+02 -0.20593733320E+02  0.61217702130E+01  0.28525989268E+02  0.00000000000E+00 0. -1.
<mgrwt>
<rscale>  0 0.12504616E+03</rscale>
<asrwt>0</asrwt>
<pdfrwt beam="1">  1       21 0.80334686E-02 0.12504616E+03</pdfrwt>
<pdfrwt beam="2">  1       21 0.11517306E-01 0.12504616E+03</pdfrwt>
<totfact> 0.73671405E+06</totfact>
</mgrwt>
</event>
<event>
 9    1  0.4541185E-002  0.1250006E+03  0.7818608E-02  0.1235068E+00
         21   -1    0    0  503  502  0.00000000000E+00  0.00000000000E+00  0.76132123463E+01  0.76132123463E+01  0.00000000000E+00 0. -1.
         21   -1    0    0  502  503 -0.00000000000E+00 -0.00000000000E+00 -0.51309338794E+03  0.51309338794E+03  0.00000000000E+00 0. -1.
         25    2    1    2    0    0  0.88817841970E-15  0.00000000000E+00 -0.50548017560E+03  0.52070660029E+03  0.12500062265E+03 0.  0.
    9000006    2    3    3    0    0  0.36990765551E+01 -0.14124446999E+02 -0.29294221989E+03  0.29937980288E+03  0.59999491765E+02 0.  0.
    9000007    2    3    3    0    0 -0.36990765551E+01  0.14124446999E+02 -0.21253795571E+03  0.22132679741E+03  0.59999878850E+02 0.  0.
          5    1    4    4  501    0  0.11503122365E+02 -0.10087530287E+02 -0.17340259890E+02  0.23597769057E+02  0.47000000000E+01 0. -1.
         -5    1    4    4    0  501 -0.78040458094E+01 -0.40369167126E+01 -0.27560196000E+03  0.27578203383E+03  0.47000000000E+01 0. -1.
         12    1    5    5    0    0 -0.14328878276E+02  0.33087078964E+02 -0.16723878951E+03  0.17108151351E+03  0.00000000000E+00 0. -1.
        -12    1    5    5    0    0  0.10629801721E+02 -0.18962631965E+02 -0.45299166200E+02  0.50245283899E+02  0.00000000000E+00 0. -1.
<mgrwt>
<rscale>  0 0.12500062E+03</rscale>
<asrwt>0</asrwt>
<pdfrwt beam="1">  1       21 0.11712632E-02 0.12500062E+03</pdfrwt>
<pdfrwt beam="2">  1       21 0.78937460E-01 0.12500062E+03</pdfrwt>
<totfact> 0.40942279E+06</totfact>
</mgrwt>
</event>
<event>
 9    1  0.4541185E-002  0.1250000E+03  0.7818608E-02  0.1235069E+00
         21   -1    0    0  503  502  0.00000000000E+00  0.00000000000E+00  0.32241673983E+02  0.32241673983E+02  0.00000000000E+00 0.  1.
         21   -1    0    0  502  503 -0.00000000000E+00 -0.00000000000E+00 -0.12115537160E+03  0.12115537160E+03  0.00000000000E+00 0.  1.
         25    2    1    2    0    0  0.71054273576E-14  0.17763568394E-14 -0.88913697614E+02  0.15339704558E+03  0.12500003188E+03 0.  0.
    9000006    2    3    3    0    0 -0.91259670253E+01  0.14916931764E+02 -0.45352064525E+02  0.77217085461E+02  0.59998920016E+02 0.  0.
    9000007    2    3    3    0    0  0.91259670253E+01 -0.14916931764E+02 -0.43561633089E+02  0.76179960120E+02  0.59999769325E+02 0.  0.
          5    1    4    4  501    0  0.24118460855E+02  0.14316792229E+02 -0.16083447325E+02  0.32671669251E+02  0.47000000000E+01 0. -1.
         -5    1    4    4    0  501 -0.33244427881E+02  0.60013953505E+00 -0.29268617200E+02  0.44545416211E+02  0.47000000000E+01 0. -1.
         12    1    5    5    0    0 -0.23679296076E+02 -0.16279761410E+02 -0.26895634576E+02  0.39358796393E+02  0.00000000000E+00 0. -1.
        -12    1    5    5    0    0  0.32805263101E+02  0.13628296459E+01 -0.16665998513E+02  0.36821163727E+02  0.00000000000E+00 0. -1.
<mgrwt>
<rscale>  0 0.12500003E+03</rscale>
<asrwt>0</asrwt>
<pdfrwt beam="1">  1       21 0.49602574E-02 0.12500003E+03</pdfrwt>
<pdfrwt beam="2">  1       21 0.18639288E-01 0.12500003E+03</pdfrwt>
<totfact> 0.70334976E+06</totfact>
</mgrwt>
</event>
<event>
 9    1  0.4541185E-002  0.1250025E+03  0.7818608E-02  0.1235065E+00
         21   -1    0    0  503  502  0.00000000000E+00  0.00000000000E+00  0.72601930555E+03  0.72601930555E+03  0.00000000000E+00 0.  1.
         21   -1    0    0  502  503 -0.00000000000E+00 -0.00000000000E+00 -0.53805813399E+01  0.53805813399E+01  0.00000000000E+00 0.  1.
         25    2    1    2    0    0 -0.35527136788E-14  0.00000000000E+00  0.72063872421E+03  0.73139988689E+03  0.12500249482E+03 0.  0.
    9000006    2    3    3    0    0  0.17422513129E+02 -0.26668306453E+00  0.37004137033E+03  0.37527884483E+03  0.59999837768E+02 0.  0.
    9000007    2    3    3    0    0 -0.17422513129E+02  0.26668306453E+00  0.35059735388E+03  0.35612104207E+03  0.60000641428E+02 0.  0.
          5    1    4    4  501    0 -0.16916208179E+02 -0.10853992983E+02  0.21813734448E+03  0.21911174847E+03  0.47000000000E+01 0.  1.
         -5    1    4    4    0  501  0.34338721308E+02  0.10587309919E+02  0.15190402586E+03  0.15616709635E+03  0.47000000000E+01 0.  1.
         12    1    5    5    0    0 -0.13266644285E+02 -0.26273058053E+02  0.25896496201E+03  0.26063217180E+03  0.00000000000E+00 0.  1.
        -12    1    5    5    0    0 -0.41558688437E+01  0.26539741118E+02  0.91632391871E+02  0.95488870265E+02  0.00000000000E+00 0.  1.
<mgrwt>
<rscale>  0 0.12500249E+03</rscale>
<asrwt>0</asrwt>
<pdfrwt beam="1">  1       21 0.11169520E+00 0.12500249E+03</pdfrwt>
<pdfrwt beam="2">  1       21 0.82778232E-03 0.12500249E+03</pdfrwt>
<totfact> 0.31732184E+06</totfact>
</mgrwt>
</event>
<event>
 9    1  0.4541185E-002  0.1249640E+03  0.7818608E-02  0.1235126E+00
         21   -1    0    0  503  502  0.00000000000E+00  0.00000000000E+00  0.75845413854E+01  0.75845413854E+01  0.00000000000E+00 0.  1.
         21   -1    0    0  502  503 -0.00000000000E+00 -0.00000000000E+00 -0.51473145269E+03  0.51473145269E+03  0.00000000000E+00 0.  1.
         25    2    1    2    0    0  0.88817841970E-15  0.35527136788E-14 -0.50714691131E+03  0.52231599408E+03  0.12496402691E+03 0.  0.
    9000006    2    3    3    0    0  0.18136765971E+00  0.86998359713E+01 -0.31672523300E+03  0.32247567418E+03  0.59999726450E+02 0.  0.
    9000007    2    3    3    0    0 -0.18136765971E+00 -0.86998359713E+01 -0.19042167831E+03  0.19984031990E+03  0.60000148753E+02 0.  0.
          5    1    4    4  501    0 -0.31933700197E+01 -0.11896477666E+02 -0.14908565831E+02  0.19901736810E+02  0.47000000000E+01 0. -1.
         -5    1    4    4    0  501  0.33747376794E+01  0.20596313637E+02 -0.30181666717E+03  0.30257393736E+03  0.47000000000E+01 0. -1.
         12    1    5    5    0    0  0.12949441032E+02  0.42747664524E+01 -0.67003780189E+01  0.15193969753E+02  0.00000000000E+00 0. -1.
        -12    1    5    5    0    0 -0.13130808692E+02 -0.12974602424E+02 -0.18372130029E+03  0.18464635015E+03  0.00000000000E+00 0. -1.
<mgrwt>
<rscale>  0 0.12496403E+03</rscale>
<asrwt>0</asrwt>
<pdfrwt beam="1">  1       21 0.11668523E-02 0.12496403E+03</pdfrwt>
<pdfrwt beam="2">  1       21 0.79189466E-01 0.12496403E+03</pdfrwt>
<totfact> 0.40895712E+06</totfact>
</mgrwt>
</event>
<event>
 9    1  0.4541185E-002  0.1250005E+03  0.7818608E-02  0.1235068E+00
         21   -1    0    0  503  502  0.00000000000E+00  0.00000000000E+00  0.50333839560E+01  0.50333839560E+01  0.00000000000E+00 0.  1.
         21   -1    0    0  502  503 -0.00000000000E+00 -0.00000000000E+00 -0.77607474658E+03  0.77607474658E+03  0.00000000000E+00 0.  1.
         25    2    1    2    0    0 -0.35527136788E-14 -0.17763568394E-14 -0.77104136262E+03  0.78110813053E+03  0.12500051485E+03 0.  0.
    9000006    2    3    3    0    0  0.10605917347E+02  0.53041646875E+01 -0.30507337680E+03  0.31114350681E+03  0.59999141283E+02 0.  0.
    9000007    2    3    3    0    0 -0.10605917347E+02 -0.53041646875E+01 -0.46596798582E+03  0.46996462372E+03  0.59999700759E+02 0.  0.
          5    1    4    4  501    0 -0.11890406510E+02 -0.16736524723E+02 -0.20611116870E+03  0.20718445137E+03  0.47000000000E+01 0. -1.
         -5    1    4    4    0  501  0.22496323857E+02  0.22040689410E+02 -0.98962208098E+02  0.10395905544E+03  0.47000000000E+01 0. -1.
         12    1    5    5    0    0  0.78172148576E+01 -0.14263106111E+02 -0.35941266866E+02  0.39450218099E+02  0.00000000000E+00 0. -1.
        -12    1    5    5    0    0 -0.18423132205E+02  0.89589414235E+01 -0.43002671895E+03  0.43051440562E+03  0.00000000000E+00 0. -1.
<mgrwt>
<rscale>  0 0.12500051E+03</rscale>
<asrwt>0</asrwt>
<pdfrwt beam="1">  1       21 0.77436703E-03 0.12500051E+03</pdfrwt>
<pdfrwt beam="2">  1       21 0.11939607E+00 0.12500051E+03</pdfrwt>
<totfact> 0.29997996E+06</totfact>
</mgrwt>
</event>
<event>
 9    1  0.4541185E-002  0.1250052E+03  0.7818608E-02  0.1235061E+00
         21   -1    0    0  503  502  0.00000000000E+00  0.00000000000E+00  0.35772097090E+01  0.35772097090E+01  0.00000000000E+00 0.  1.
         21   -1    0    0  502  503 -0.00000000000E+00 -0.00000000000E+00 -0.10920736391E+04  0.10920736391E+04  0.00000000000E+00 0.  1.
         25    2    1    2    0    0 -0.17763568394E-14  0.00000000000E+00 -0.10884964294E+04  0.10956508488E+04  0.12500522269E+03 0.  0.
    9000006    2    3    3    0    0 -0.13528767846E+02 -0.34134680501E+01 -0.45157157658E+03  0.45575383305E+03  0.59999902001E+02 0.  0.
    9000007    2    3    3    0    0  0.13528767846E+02  0.34134680501E+01 -0.63692485281E+03  0.63989701576E+03  0.60002027691E+02 0.  0.
          5    1    4    4  501    0  0.74779446053E+01 -0.17729708286E+02 -0.36159175229E+03  0.36213388068E+03  0.47000000000E+01 0. -1.
         -5    1    4    4    0  501 -0.21006712451E+02  0.14316240236E+02 -0.89979824298E+02  0.93619952378E+02  0.47000000000E+01 0. -1.
         12    1    5    5    0    0 -0.22851057320E+02 -0.61633457715E+01 -0.27823553958E+03  0.27924035012E+03  0.00000000000E+00 0. -1.
        -12    1    5    5    0    0  0.36379825166E+02  0.95768138216E+01 -0.35868931323E+03  0.36065666564E+03  0.00000000000E+00 0. -1.
<mgrwt>
<rscale>  0 0.12500522E+03</rscale>
<asrwt>0</asrwt>
<pdfrwt beam="1">  1       21 0.55033920E-03 0.12500522E+03</pdfrwt>
<pdfrwt beam="2">  1       21 0.16801156E+00 0.12500522E+03</pdfrwt>
<totfact> 0.21345593E+06</totfact>
</mgrwt>
</event>
<event>
 9    1  0.4541185E-002  0.1249976E+03  0.7818608E-02  0.1235073E+00
         21   -1    0    0  503  502  0.00000000000E+00  0.00000000000E+00  0.63064712614E+03  0.63064712614E+03  0.00000000000E+00 0.  1.
         21   -1    0    0  502  503 -0.00000000000E+00 -0.00000000000E+00 -0.61937981592E+01  0.61937981592E+01  0.00000000000E+00 0.  1.
         25    2    1    2    0    0  0.00000000000E+00 -0.35527136788E-14  0.62445332798E+03  0.63684092430E+03  0.12499761612E+03 0.  0.
    9000006    2    3    3    0    0  0.95982239135E+01 -0.10686021502E+02  0.26134701289E+03  0.26853057572E+03  0.60000766593E+02 0.  0.
    9000007    2    3    3    0    0 -0.95982239135E+01  0.10686021502E+02  0.36310631509E+03  0.36831034858E+03  0.59999998788E+02 0.  0.
          5    1    4    4  501    0  0.17309183923E+02 -0.32082646194E+02  0.18921720288E+03  0.19275410216E+03  0.47000000000E+01 0.  1.
         -5    1    4    4    0  501 -0.77109600099E+01  0.21396624693E+02  0.72129810006E+02  0.75776473552E+02  0.47000000000E+01 0.  1.
         12    1    5    5    0    0 -0.17966457157E+02 -0.28138976527E+00  0.30365318297E+02  0.35283499235E+02  0.00000000000E+00 0. -1.
        -12    1    5    5    0    0  0.83682332436E+01  0.10967411267E+02  0.33274099680E+03  0.33302684935E+03  0.00000000000E+00 0. -1.
<mgrwt>
<rscale>  0 0.12499762E+03</rscale>
<asrwt>0</asrwt>
<pdfrwt beam="1">  1       21 0.97022584E-01 0.12499762E+03</pdfrwt>
<pdfrwt beam="2">  1       21 0.95289252E-03 0.12499762E+03</pdfrwt>
<totfact> 0.35479914E+06</totfact>
</mgrwt>
</event>
<event>
 9    1  0.4541185E-002  0.1249959E+03  0.7818608E-02  0.1235076E+00
         21   -1    0    0  503  502  0.00000000000E+00  0.00000000000E+00  0.86954364915E+02  0.86954364915E+02  0.00000000000E+00 0.  1.
         21   -1    0    0  502  503 -0.00000000000E+00 -0.00000000000E+00 -0.44920049656E+02  0.44920049656E+02  0.00000000000E+00 0.  1.
         25    2    1    2    0    0  0.00000000000E+00 -0.17763568394E-14  0.42034315259E+02  0.13187441457E+03  0.12499591017E+03 0.  0.
    9000006    2    3    3    0    0 -0.15319947548E+02  0.11346738240E+01  0.29840242895E+02  0.68749747447E+02  0.60000828331E+02 0.  0.
    9000007    2    3    3    0    0  0.15319947548E+02 -0.11346738240E+01  0.12194072364E+02  0.63124667124E+02  0.60000332675E+02 0.  0.
          5    1    4    4  501    0 -0.35920981623E+02  0.10255687558E+02  0.25103935793E+02  0.45252553965E+02  0.47000000000E+01 0.  1.
         -5    1    4    4    0  501  0.20601034076E+02 -0.91210137338E+01  0.47363071022E+01  0.23497193481E+02  0.47000000000E+01 0.  1.
         12    1    5    5    0    0  0.19635257401E+02 -0.16561684423E+02  0.29785733210E+02  0.39332208519E+02  0.00000000000E+00 0. -1.
        -12    1    5    5    0    0 -0.43153098533E+01  0.15427010599E+02 -0.17591660846E+02  0.23792458605E+02  0.00000000000E+00 0. -1.
<mgrwt>
<rscale>  0 0.12499591E+03</rscale>
<asrwt>0</asrwt>
<pdfrwt beam="1">  1       21 0.13377595E-01 0.12499591E+03</pdfrwt>
<pdfrwt beam="2">  1       21 0.69107769E-02 0.12499591E+03</pdfrwt>
<totfact> 0.73120707E+06</totfact>
</mgrwt>
</event>
<event>
 9    1  0.4541185E-002  0.1250039E+03  0.7818608E-02  0.1235063E+00
         21   -1    0    0  503  502  0.00000000000E+00  0.00000000000E+00  0.99753297338E+01  0.99753297338E+01  0.00000000000E+00 0. -1.
         21   -1    0    0  502  503 -0.00000000000E+00 -0.00000000000E+00 -0.39161549363E+03  0.39161549363E+03  0.00000000000E+00 0. -1.
         25    2    1    2    0    0  0.00000000000E+00  0.26645352591E-14 -0.38164016390E+03  0.40159082337E+03  0.12500389878E+03 0.  0.
    9000006    2    3    3    0    0  0.13461536048E+02 -0.33914959480E+01 -0.15657216357E+03  0.16824819335E+03  0.59999141352E+02 0.  0.
    9000007    2    3    3    0    0 -0.13461536048E+02  0.33914959480E+01 -0.22506800033E+03  0.23334263002E+03  0.60003858322E+02 0.  0.
          5    1    4    4  501    0  0.12209225691E+02 -0.78290148971E+01 -0.43100241214E+01  0.15843767675E+02  0.47000000000E+01 0.  1.
         -5    1    4    4    0  501  0.12523103568E+01  0.44375189490E+01 -0.15226213945E+03  0.15240442568E+03  0.47000000000E+01 0.  1.
         12    1    5    5    0    0 -0.10481856297E+02  0.29048220993E+02 -0.16638807791E+03  0.16922961007E+03  0.00000000000E+00 0.  1.
        -12    1    5    5    0    0 -0.29796797506E+01 -0.25656725045E+02 -0.58679922419E+02  0.64113019945E+02  0.00000000000E+00 0.  1.
<mgrwt>
<rscale>  0 0.12500390E+03</rscale>
<asrwt>0</asrwt>
<pdfrwt beam="1">  1       21 0.15346662E-02 0.12500390E+03</pdfrwt>
<pdfrwt beam="2">  1       21 0.60248534E-01 0.12500390E+03</pdfrwt>
<totfact> 0.47931343E+06</totfact>
</mgrwt>
</event>
<event>
 9    1  0.4541185E-002  0.1250029E+03  0.7818608E-02  0.1235065E+00
         21   -1    0    0  503  502  0.00000000000E+00  0.00000000000E+00  0.44581365024E+03  0.44581365024E+03  0.00000000000E+00 0. -1.
         21   -1    0    0  502  503 -0.00000000000E+00 -0.00000000000E+00 -0.87624688352E+01  0.87624688352E+01  0.00000000000E+00 0. -1.
         25    2    1    2    0    0 -0.88817841970E-15  0.17763568394E-14  0.43705118141E+03  0.45457611908E+03  0.12500285143E+03 0.  0.
    9000006    2    3    3    0    0 -0.70154412738E+01 -0.82686172152E+01  0.26843620392E+03  0.27527593074E+03  0.60010465913E+02 0.  0.
    9000007    2    3    3    0    0  0.70154412738E+01  0.82686172152E+01  0.16861497749E+03  0.17930018834E+03  0.59999670503E+02 0.  0.
          5    1    4    4  501    0 -0.13448047893E+02 -0.12401662575E+02  0.26498964782E+03  0.26566191800E+03  0.47000000000E+01 0. -1.
         -5    1    4    4    0  501  0.64326066187E+01  0.41330453595E+01  0.34465561069E+01  0.96140127342E+01  0.47000000000E+01 0. -1.
         12    1    5    5    0    0 -0.10178004345E+02 -0.21632406629E+02  0.95665177574E+02  0.98607195423E+02  0.00000000000E+00 0. -1.
        -12    1    5    5    0    0  0.17193445619E+02  0.29901023844E+02  0.72949799913E+02  0.80692992921E+02  0.00000000000E+00 0. -1.
<mgrwt>
<rscale>  0 0.12500285E+03</rscale>
<asrwt>0</asrwt>
<pdfrwt beam="1">  1       21 0.68586698E-01 0.12500285E+03</pdfrwt>
<pdfrwt beam="2">  1       21 0.13480725E-02 0.12500285E+03</pdfrwt>
<totfact> 0.44616539E+06</totfact>
</mgrwt>
</event>
<event>
 9    1  0.4541185E-002  0.1250048E+03  0.7818608E-02  0.1235062E+00
         21   -1    0    0  503  502  0.00000000000E+00  0.00000000000E+00  0.27066538970E+02  0.27066538970E+02  0.00000000000E+00 0. -1.
         21   -1    0    0  502  503 -0.00000000000E+00 -0.00000000000E+00 -0.14433143680E+03  0.14433143680E+03  0.00000000000E+00 0. -1.
         25    2    1    2    0    0  0.00000000000E+00  0.00000000000E+00 -0.11726489783E+03  0.17139797577E+03  0.12500483925E+03 0.  0.
    9000006    2    3    3    0    0 -0.18656756746E-01  0.13451122993E+02 -0.73976967761E+02  0.96195322780E+02  0.60000127565E+02 0.  0.
    9000007    2    3    3    0    0  0.18656756746E-01 -0.13451122993E+02 -0.43287930072E+02  0.75202652992E+02  0.60005508658E+02 0.  0.
          5    1    4    4  501    0 -0.19580778611E+02  0.92722771508E+01 -0.30817912947E+01  0.22382346887E+02  0.47000000000E+01 0.  1.
         -5    1    4    4    0  501  0.19562121855E+02  0.41788458419E+01 -0.70895176466E+02  0.73812975893E+02  0.47000000000E+01 0.  1.
         12    1    5    5    0    0 -0.29431964266E+02 -0.12149124791E+02 -0.25300527521E+02  0.40668887943E+02  0.00000000000E+00 0. -1.
        -12    1    5    5    0    0  0.29450621022E+02 -0.13019982018E+01 -0.17987402551E+02  0.34533765049E+02  0.00000000000E+00 0. -1.
<mgrwt>
<rscale>  0 0.12500484E+03</rscale>
<asrwt>0</asrwt>
<pdfrwt beam="1">  1       21 0.41640830E-02 0.12500484E+03</pdfrwt>
<pdfrwt beam="2">  1       21 0.22204836E-01 0.12500484E+03</pdfrwt>
<totfact> 0.68143928E+06</totfact>
</mgrwt>
</event>
<event>
 9    1  0.4541185E-002  0.1250029E+03  0.7818608E-02  0.1235065E+00
         21   -1    0    0  503  502  0.00000000000E+00  0.00000000000E+00  0.80172558786E+02  0.80172558786E+02  0.00000000000E+00 0.  1.
         21   -1    0    0  502  503 -0.00000000000E+00 -0.00000000000E+00 -0.48725326536E+02  0.48725326536E+02  0.00000000000E+00 0.  1.
         25    2    1    2    0    0  0.35527136788E-14  0.00000000000E+00  0.31447232250E+02  0.12889788532E+03  0.12500294566E+03 0.  0.
    9000006    2    3    3    0    0  0.10263634322E+02  0.12425313063E+02  0.22777279613E+02  0.66169032603E+02  0.59998381769E+02 0.  0.
    9000007    2    3    3    0    0 -0.10263634322E+02 -0.12425313063E+02  0.86699526368E+01  0.62728852719E+02  0.60000085754E+02 0.  0.
          5    1    4    4  501    0  0.31259677254E+02 -0.77758991460E+01  0.10507253120E+02  0.34207081104E+02  0.47000000000E+01 0.  1.
         -5    1    4    4    0  501 -0.20996042932E+02  0.20201212209E+02  0.12270026493E+02  0.31961951499E+02  0.47000000000E+01 0.  1.
         12    1    5    5    0    0 -0.33954221913E+02 -0.17058767157E+00  0.11633335191E+02  0.35892238347E+02  0.00000000000E+00 0.  1.
        -12    1    5    5    0    0  0.23690587591E+02 -0.12254725391E+02 -0.29633825546E+01  0.26836614373E+02  0.00000000000E+00 0.  1.
<mgrwt>
<rscale>  0 0.12500295E+03</rscale>
<asrwt>0</asrwt>
<pdfrwt beam="1">  1       21 0.12334240E-01 0.12500295E+03</pdfrwt>
<pdfrwt beam="2">  1       21 0.74962041E-02 0.12500295E+03</pdfrwt>
<totfact> 0.73507070E+06</totfact>
</mgrwt>
</event>
<event>
 9    1  0.4541185E-002  0.1249996E+03  0.7818608E-02  0.1235070E+00
         21   -1    0    0  503  502  0.00000000000E+00  0.00000000000E+00  0.17553952016E+02  0.17553952016E+02  0.00000000000E+00 0. -1.
         21   -1    0    0  502  503 -0.00000000000E+00 -0.00000000000E+00 -0.22252663796E+03  0.22252663796E+03  0.00000000000E+00 0. -1.
         25    2    1    2    0    0  0.17763568394E-14 -0.17763568394E-14 -0.20497268595E+03  0.24008058998E+03  0.12499955080E+03 0.  0.
    9000006    2    3    3    0    0  0.10742002571E+02 -0.95345592609E+01 -0.83284732033E+02  0.10364657277E+03  0.59999725147E+02 0.  0.
    9000007    2    3    3    0    0 -0.10742002571E+02  0.95345592609E+01 -0.12168795391E+03  0.13643401721E+03  0.59999870704E+02 0.  0.
          5    1    4    4  501    0 -0.10931370614E+02 -0.28124131147E+02 -0.56453807048E+02  0.64183985125E+02  0.47000000000E+01 0.  1.
         -5    1    4    4    0  501  0.21673373185E+02  0.18589571886E+02 -0.26830924985E+02  0.39462587646E+02  0.47000000000E+01 0.  1.
         12    1    5    5    0    0  0.13827837178E+02  0.12923885016E+02 -0.10463897799E+03  0.10633697193E+03  0.00000000000E+00 0.  1.
        -12    1    5    5    0    0 -0.24569839749E+02 -0.33893257550E+01 -0.17048975924E+02  0.30097045277E+02  0.00000000000E+00 0.  1.
<mgrwt>
<rscale>  0 0.12499955E+03</rscale>
<asrwt>0</asrwt>
<pdfrwt beam="1">  1       21 0.27006081E-02 0.12499955E+03</pdfrwt>
<pdfrwt beam="2">  1       21 0.34234867E-01 0.12499955E+03</pdfrwt>
<totfact> 0.60825555E+06</totfact>
</mgrwt>
</event>
<event>
 9    1  0.4541185E-002  0.1250039E+03  0.7818608E-02  0.1235063E+00
         21   -1    0    0  503  502  0.00000000000E+00  0.00000000000E+00  0.19167194157E+02  0.19167194157E+02  0.00000000000E+00 0. -1.
         21   -1    0    0  502  503 -0.00000000000E+00 -0.00000000000E+00 -0.20381145133E+03  0.20381145133E+03  0.00000000000E+00 0. -1.
         25    2    1    2    0    0 -0.35527136788E-14  0.00000000000E+00 -0.18464425717E+03  0.22297864548E+03  0.12500389848E+03 0.  0.
    9000006    2    3    3    0    0  0.16622863851E+02 -0.54454781105E+01 -0.90361770114E+02  0.10986893731E+03  0.59999675441E+02 0.  0.
    9000007    2    3    3    0    0 -0.16622863851E+02  0.54454781105E+01 -0.94282487056E+02  0.11310970817E+03  0.59988714631E+02 0.  0.
          5    1    4    4  501    0  0.32718500489E+02 -0.61205127928E+00 -0.22975074032E+02  0.40259395274E+02  0.47000000000E+01 0. -1.
         -5    1    4    4    0  501 -0.16095636638E+02 -0.48334268312E+01 -0.67386696081E+02  0.69609542036E+02  0.47000000000E+01 0. -1.
         12    1    5    5    0    0  0.22575976470E+02  0.46044884668E+01 -0.39757839388E+02  0.45951733595E+02  0.00000000000E+00 0. -1.
        -12    1    5    5    0    0 -0.39198840321E+02  0.84098964370E+00 -0.54524647668E+02  0.67157974578E+02  0.00000000000E+00 0. -1.
<mgrwt>
<rscale>  0 0.12500390E+03</rscale>
<asrwt>0</asrwt>
<pdfrwt beam="1">  1       21 0.29487992E-02 0.12500390E+03</pdfrwt>
<pdfrwt beam="2">  1       21 0.31355607E-01 0.12500390E+03</pdfrwt>
<totfact> 0.62513212E+06</totfact>
</mgrwt>
</event>
<event>
 9    1  0.4541185E-002  0.1250026E+03  0.7818608E-02  0.1235065E+00
         21   -1    0    0  503  502  0.00000000000E+00  0.00000000000E+00  0.67884413360E+01  0.67884413360E+01  0.00000000000E+00 0.  1.
         21   -1    0    0  502  503 -0.00000000000E+00 -0.00000000000E+00 -0.57545089676E+03  0.57545089676E+03  0.00000000000E+00 0.  1.
         25    2    1    2    0    0 -0.71054273576E-14  0.00000000000E+00 -0.56866245542E+03  0.58223933810E+03  0.12500263444E+03 0.  0.
    9000006    2    3    3    0    0 -0.16001036782E+02  0.68661105562E+01 -0.27602652475E+03  0.28300877435E+03  0.60001227839E+02 0.  0.
    9000007    2    3    3    0    0  0.16001036782E+02 -0.68661105562E+01 -0.29263593067E+03  0.29923056374E+03  0.59999714209E+02 0.  0.
          5    1    4    4  501    0 -0.37005721549E+02 -0.50025968541E+01 -0.17935183772E+03  0.18325834523E+03  0.47000000000E+01 0.  1.
         -5    1    4    4    0  501  0.21004684767E+02  0.11868707410E+02 -0.96674687032E+02  0.99750429125E+02  0.47000000000E+01 0.  1.
         12    1    5    5    0    0  0.19985821571E+02  0.17061912632E+02 -0.23806700872E+03  0.23951292777E+03  0.00000000000E+00 0. -1.
        -12    1    5    5    0    0 -0.39847847895E+01 -0.23928023188E+02 -0.54568921950E+02  0.59717635974E+02  0.00000000000E+00 0. -1.
<mgrwt>
<rscale>  0 0.12500263E+03</rscale>
<asrwt>0</asrwt>
<pdfrwt beam="1">  1       21 0.10443751E-02 0.12500263E+03</pdfrwt>
<pdfrwt beam="2">  1       21 0.88530946E-01 0.12500263E+03</pdfrwt>
<totfact> 0.37905858E+06</totfact>
</mgrwt>
</event>
<event>
 9    1  0.4541185E-002  0.1250011E+03  0.7818608E-02  0.1235068E+00
         21   -1    0    0  503  502  0.00000000000E+00  0.00000000000E+00  0.13261483591E+04  0.13261483591E+04  0.00000000000E+00 0. -1.
         21   -1    0    0  502  503 -0.00000000000E+00 -0.00000000000E+00 -0.29456104788E+01  0.29456104788E+01  0.00000000000E+00 0. -1.
         25    2    1    2    0    0  0.00000000000E+00  0.00000000000E+00  0.13232027486E+04  0.13290939696E+04  0.12500106404E+03 0.  0.
    9000006    2    3    3    0    0  0.12423094768E+02  0.87832161531E+01  0.75343954869E+03  0.75597798476E+03  0.60000681158E+02 0.  0.
    9000007    2    3    3    0    0 -0.12423094768E+02 -0.87832161531E+01  0.56976319993E+03  0.57311598482E+03  0.60002915690E+02 0.  0.
          5    1    4    4  501    0 -0.24387722061E+01 -0.19399137533E+02  0.51264746181E+03  0.51304169836E+03  0.47000000000E+01 0. -1.
         -5    1    4    4    0  501  0.14861866974E+02  0.28182353686E+02  0.24079208688E+03  0.24293628641E+03  0.47000000000E+01 0. -1.
         12    1    5    5    0    0  0.14252504688E+02 -0.16770883056E+02  0.43234780861E+03  0.43290763914E+03  0.00000000000E+00 0. -1.
        -12    1    5    5    0    0 -0.26675599456E+02  0.79876669033E+01  0.13741539131E+03  0.14020834568E+03  0.00000000000E+00 0. -1.
<mgrwt>
<rscale>  0 0.12500106E+03</rscale>
<asrwt>0</asrwt>
<pdfrwt beam="1">  1       21 0.20402235E+00 0.12500106E+03</pdfrwt>
<pdfrwt beam="2">  1       21 0.45317190E-03 0.12500106E+03</pdfrwt>
<totfact> 0.16737535E+06</totfact>
</mgrwt>
</event>
<event>
 9    1  0.4541185E-002  0.1249987E+03  0.7818608E-02  0.1235071E+00
         21   -1    0    0  503  502  0.00000000000E+00  0.00000000000E+00  0.22406570819E+02  0.22406570819E+02  0.00000000000E+00 0.  1.
         21   -1    0    0  502  503 -0.00000000000E+00 -0.00000000000E+00 -0.17433138307E+03  0.17433138307E+03  0.00000000000E+00 0.  1.
         25    2    1    2    0    0  0.35527136788E-14  0.00000000000E+00 -0.15192481226E+03  0.19673795389E+03  0.12499869569E+03 0.  0.
    9000006    2    3    3    0    0  0.17136168303E+02 -0.25435183342E+01 -0.79840109990E+02  0.10136336822E+03  0.59999762533E+02 0.  0.
    9000007    2    3    3    0    0 -0.17136168303E+02  0.25435183342E+01 -0.72084702265E+02  0.95374585673E+02  0.59999912850E+02 0.  0.
          5    1    4    4  501    0 -0.18230203542E+02 -0.15449505388E+02 -0.27754113014E+02  0.36924359535E+02  0.47000000000E+01 0. -1.
         -5    1    4    4    0  501  0.35366371844E+02  0.12905987053E+02 -0.52085996977E+02  0.64439008685E+02  0.47000000000E+01 0. -1.
         12    1    5    5    0    0  0.33088382159E+00  0.24194805622E+02 -0.60647883502E+02  0.65296737104E+02  0.00000000000E+00 0. -1.
        -12    1    5    5    0    0 -0.17467052124E+02 -0.21651287287E+02 -0.11436818763E+02  0.30077848569E+02  0.00000000000E+00 0. -1.
<mgrwt>
<rscale>  0 0.12499870E+03</rscale>
<asrwt>0</asrwt>
<pdfrwt beam="1">  1       21 0.34471648E-02 0.12499870E+03</pdfrwt>
<pdfrwt beam="2">  1       21 0.26820212E-01 0.12499870E+03</pdfrwt>
<totfact> 0.65283466E+06</totfact>
</mgrwt>
</event>
<event>
 9    1  0.4541185E-002  0.1250018E+03  0.7818608E-02  0.1235066E+00
         21   -1    0    0  503  502  0.00000000000E+00  0.00000000000E+00  0.71860879294E+02  0.71860879294E+02  0.00000000000E+00 0. -1.
         21   -1    0    0  502  503 -0.00000000000E+00 -0.00000000000E+00 -0.54360074051E+02  0.54360074051E+02  0.00000000000E+00 0. -1.
         25    2    1    2    0    0  0.00000000000E+00  0.17763568394E-14  0.17500805243E+02  0.12622095335E+03  0.12500180350E+03 0.  0.
    9000006    2    3    3    0    0  0.13795295197E+02 -0.54845155680E+01 -0.61800963449E+00  0.61813079436E+02  0.60000706437E+02 0.  0.
    9000007    2    3    3    0    0 -0.13795295197E+02  0.54845155680E+01  0.18118814878E+02  0.64407873909E+02  0.59997439015E+02 0.  0.
          5    1    4    4  501    0  0.26813844404E+02 -0.11540066403E+02 -0.21127238283E+02  0.36340137338E+02  0.47000000000E+01 0. -1.
         -5    1    4    4    0  501 -0.13018549207E+02  0.60555508347E+01  0.20509228648E+02  0.25472942098E+02  0.47000000000E+01 0. -1.
         12    1    5    5    0    0 -0.32472055577E+02  0.17675504550E+01 -0.66214708453E+01  0.33187384714E+02  0.00000000000E+00 0. -1.
        -12    1    5    5    0    0  0.18676760380E+02  0.37169651130E+01  0.24740285723E+02  0.31220489195E+02  0.00000000000E+00 0. -1.
<mgrwt>
<rscale>  0 0.12500180E+03</rscale>
<asrwt>0</asrwt>
<pdfrwt beam="1">  1       21 0.11055520E-01 0.12500180E+03</pdfrwt>
<pdfrwt beam="2">  1       21 0.83630882E-02 0.12500180E+03</pdfrwt>
<totfact> 0.73872231E+06</totfact>
</mgrwt>
</event>
<event>
 9    1  0.4541185E-002  0.1249998E+03  0.7818608E-02  0.1235070E+00
         21   -1    0    0  503  502  0.00000000000E+00  0.00000000000E+00  0.11745060846E+02  0.11745060846E+02  0.00000000000E+00 0. -1.
         21   -1    0    0  502  503 -0.00000000000E+00 -0.00000000000E+00 -0.33258542073E+03  0.33258542073E+03  0.00000000000E+00 0. -1.
         25    2    1    2    0    0  0.35527136788E-14  0.17763568394E-14 -0.32084035988E+03  0.34433048158E+03  0.12499977605E+03 0.  0.
    9000006    2    3    3    0    0  0.12290677914E+02  0.11606043841E+02 -0.14794168663E+03  0.16053803558E+03  0.59999643386E+02 0.  0.
    9000007    2    3    3    0    0 -0.12290677914E+02 -0.11606043841E+02 -0.17289867325E+03  0.18379244600E+03  0.59999591469E+02 0.  0.
          5    1    4    4  501    0 -0.72322152086E+01 -0.20373497102E+02 -0.77714447867E+02  0.80802287890E+02  0.47000000000E+01 0.  1.
         -5    1    4    4    0  501  0.19522893123E+02  0.31979540943E+02 -0.70227238764E+02  0.79735747687E+02  0.47000000000E+01 0.  1.
         12    1    5    5    0    0  0.22915228965E+02 -0.12781117099E+02 -0.89311785302E+02  0.93086302251E+02  0.00000000000E+00 0.  1.
        -12    1    5    5    0    0 -0.35205906880E+02  0.11750732582E+01 -0.83586887951E+02  0.90706143748E+02  0.00000000000E+00 0.  1.
<mgrwt>
<rscale>  0 0.12499978E+03</rscale>
<asrwt>0</asrwt>
<pdfrwt beam="1">  1       21 0.18069325E-02 0.12499978E+03</pdfrwt>
<pdfrwt beam="2">  1       21 0.51166987E-01 0.12499978E+03</pdfrwt>
<totfact> 0.51960178E+06</totfact>
</mgrwt>
</event>
<event>
 9    1  0.4541185E-002  0.1250026E+03  0.7818608E-02  0.1235065E+00
         21   -1    0    0  503  502  0.00000000000E+00  0.00000000000E+00  0.47029542735E+03  0.47029542735E+03  0.00000000000E+00 0.  1.
         21   -1    0    0  502  503 -0.00000000000E+00 -0.00000000000E+00 -0.83062958421E+01  0.83062958421E+01  0.00000000000E+00 0.  1.
         25    2    1    2    0    0 -0.35527136788E-14  0.17763568394E-14  0.46198913150E+03  0.47860172319E+03  0.12500260722E+03 0.  0.
    9000006    2    3    3    0    0  0.45194819792E+01 -0.14070511482E+02  0.19505763200E+03  0.20461123550E+03  0.59998940651E+02 0.  0.
    9000007    2    3    3    0    0 -0.45194819792E+01  0.14070511482E+02  0.26693149950E+03  0.27399048769E+03  0.59999640894E+02 0.  0.
          5    1    4    4  501    0 -0.26616215214E+02  0.29805564951E+00  0.92678946055E+02  0.96540089037E+02  0.47000000000E+01 0.  1.
         -5    1    4    4    0  501  0.31135697194E+02 -0.14368567131E+02  0.10237868595E+03  0.10807114646E+03  0.47000000000E+01 0.  1.
         12    1    5    5    0    0 -0.23329474936E+02  0.13036965454E+02  0.23781009702E+03  0.23930706030E+03  0.00000000000E+00 0.  1.
        -12    1    5    5    0    0  0.18809992957E+02  0.10335460279E+01  0.29121402488E+02  0.34683427386E+02  0.00000000000E+00 0.  1.
<mgrwt>
<rscale>  0 0.12500261E+03</rscale>
<asrwt>0</asrwt>
<pdfrwt beam="1">  1       21 0.72353122E-01 0.12500261E+03</pdfrwt>
<pdfrwt beam="2">  1       21 0.12778920E-02 0.12500261E+03</pdfrwt>
<totfact> 0.43226038E+06</totfact>
</mgrwt>
</event>
<event>
 9    1  0.4541185E-002  0.1249991E+03  0.7818608E-02  0.1235071E+00
         21   -1    0    0  503  502  0.00000000000E+00  0.00000000000E+00  0.20668951946E+03  0.20668951946E+03  0.00000000000E+00 0.  1.
         21   -1    0    0  502  503 -0.00000000000E+00 -0.00000000000E+00 -0.18898836210E+02  0.18898836210E+02  0.00000000000E+00 0.  1.
         25    2    1    2    0    0  0.00000000000E+00  0.35527136788E-14  0.18779068325E+03  0.22558835567E+03  0.12499906199E+03 0.  0.
    9000006    2    3    3    0    0  0.90644609781E+01  0.12068793394E+02  0.10987233042E+03  0.12609421604E+03  0.60000017505E+02 0.  0.
    9000007    2    3    3    0    0 -0.90644609781E+01 -0.12068793394E+02  0.77918352830E+02  0.99494139627E+02  0.59999949046E+02 0.  0.
          5    1    4    4  501    0 -0.25363484962E+01 -0.22925251755E+02  0.31186209789E+02  0.39072623571E+02  0.47000000000E+01 0. -1.
         -5    1    4    4    0  501  0.11600809474E+02  0.34994045149E+02  0.78686120633E+02  0.87021592473E+02  0.47000000000E+01 0. -1.
         12    1    5    5    0    0 -0.87309934973E+01 -0.34634437321E+02  0.30457239676E+02  0.46940578870E+02  0.00000000000E+00 0. -1.
        -12    1    5    5    0    0 -0.33346748080E+00  0.22565643927E+02  0.47461113154E+02  0.52553560757E+02  0.00000000000E+00 0. -1.
<mgrwt>
<rscale>  0 0.12499906E+03</rscale>
<asrwt>0</asrwt>
<pdfrwt beam="1">  1       21 0.31798386E-01 0.12499906E+03</pdfrwt>
<pdfrwt beam="2">  1       21 0.29075134E-02 0.12499906E+03</pdfrwt>
<totfact> 0.62257248E+06</totfact>
</mgrwt>
</event>
<event>
 9    1  0.4541185E-002  0.1249858E+03  0.7818608E-02  0.1235092E+00
         21   -1    0    0  503  502  0.00000000000E+00  0.00000000000E+00  0.17301202720E+02  0.17301202720E+02  0.00000000000E+00 0.  1.
         21   -1    0    0  502  503 -0.00000000000E+00 -0.00000000000E+00 -0.22572772401E+03  0.22572772401E+03  0.00000000000E+00 0.  1.
         25    2    1    2    0    0  0.17763568394E-14  0.35527136788E-14 -0.20842652129E+03  0.24302892673E+03  0.12498577700E+03 0.  0.
    9000006    2    3    3    0    0 -0.14423044131E+01 -0.10582325402E+02 -0.77290957826E+02  0.98423498494E+02  0.59993558332E+02 0.  0.
    9000007    2    3    3    0    0  0.14423044131E+01  0.10582325402E+02 -0.13113556347E+03  0.14460542824E+03  0.60001066804E+02 0.  0.
          5    1    4    4  501    0 -0.10713637143E+02  0.22794684369E+02 -0.27502889167E+02  0.37588277014E+02  0.47000000000E+01 0.  1.
         -5    1    4    4    0  501  0.92713327301E+01 -0.33377009771E+02 -0.49788068659E+02  0.60835221481E+02  0.47000000000E+01 0.  1.
         12    1    5    5    0    0  0.21011309438E+02 -0.14956027371E+02 -0.36827480551E+02  0.44960218002E+02  0.00000000000E+00 0. -1.
        -12    1    5    5    0    0 -0.19569005025E+02  0.25538352773E+02 -0.94308082917E+02  0.99645210238E+02  0.00000000000E+00 0. -1.
<mgrwt>
<rscale>  0 0.12498578E+03</rscale>
<asrwt>0</asrwt>
<pdfrwt beam="1">  1       21 0.26617235E-02 0.12498578E+03</pdfrwt>
<pdfrwt beam="2">  1       21 0.34727342E-01 0.12498578E+03</pdfrwt>
<totfact> 0.60562507E+06</totfact>
</mgrwt>
</event>
<event>
 9    1  0.4541185E-002  0.1249977E+03  0.7818608E-02  0.1235073E+00
         21   -1    0    0  503  502  0.00000000000E+00  0.00000000000E+00  0.73520291036E+02  0.73520291036E+02  0.00000000000E+00 0.  1.
         21   -1    0    0  502  503 -0.00000000000E+00 -0.00000000000E+00 -0.53129655624E+02  0.53129655624E+02  0.00000000000E+00 0.  1.
         25    2    1    2    0    0  0.26645352591E-14 -0.35527136788E-14  0.20390635413E+02  0.12664994666E+03  0.12499772388E+03 0.  0.
    9000006    2    3    3    0    0 -0.39942292995E+01  0.17015006004E+02  0.93848505336E+01  0.63194140626E+02  0.59999664107E+02 0.  0.
    9000007    2    3    3    0    0  0.39942292995E+01 -0.17015006004E+02  0.11005784879E+02  0.63455806034E+02  0.60000397678E+02 0.  0.
          5    1    4    4  501    0  0.13344922580E+02  0.30400815989E+02 -0.84250169703E+01  0.34574086863E+02  0.47000000000E+01 0.  1.
         -5    1    4    4    0  501 -0.17339151880E+02 -0.13385809986E+02  0.17809867504E+02  0.28620053763E+02  0.47000000000E+01 0.  1.
         12    1    5    5    0    0  0.84528454767E+01 -0.37451068533E+02  0.16562867266E+02  0.41813415348E+02  0.00000000000E+00 0.  1.
        -12    1    5    5    0    0 -0.44586161772E+01  0.20436062530E+02 -0.55570823872E+01  0.21642390686E+02  0.00000000000E+00 0.  1.
<mgrwt>
<rscale>  0 0.12499772E+03</rscale>
<asrwt>0</asrwt>
<pdfrwt beam="1">  1       21 0.11310814E-01 0.12499772E+03</pdfrwt>
<pdfrwt beam="2">  1       21 0.81737931E-02 0.12499772E+03</pdfrwt>
<totfact> 0.73821159E+06</totfact>
</mgrwt>
</event>
<event>
 9    1  0.4541185E-002  0.1249998E+03  0.7818608E-02  0.1235070E+00
         21   -1    0    0  503  502  0.00000000000E+00  0.00000000000E+00  0.70617003642E+01  0.70617003642E+01  0.00000000000E+00 0. -1.
         21   -1    0    0  502  503 -0.00000000000E+00 -0.00000000000E+00 -0.55315796168E+03  0.55315796168E+03  0.00000000000E+00 0. -1.
         25    2    1    2    0    0 -0.17763568394E-14  0.17763568394E-14 -0.54609626132E+03  0.56021966205E+03  0.12499977247E+03 0.  0.
    9000006    2    3    3    0    0 -0.91399954087E+01 -0.12507695704E+02 -0.23656619156E+03  0.24454758240E+03  0.59999792512E+02 0.  0.
    9000007    2    3    3    0    0  0.91399954087E+01  0.12507695704E+02 -0.30953006976E+03  0.31567207964E+03  0.60000131790E+02 0.  0.
          5    1    4    4  501    0 -0.27708731994E+02 -0.60483794901E+01 -0.20538656604E+03  0.20738873700E+03  0.47000000000E+01 0. -1.
         -5    1    4    4    0  501  0.18568736585E+02 -0.64593162143E+01 -0.31179625522E+02  0.37158845407E+02  0.47000000000E+01 0. -1.
         12    1    5    5    0    0 -0.29514010286E+01 -0.12532668704E+02 -0.24583371206E+03  0.24617065735E+03  0.00000000000E+00 0.  1.
        -12    1    5    5    0    0  0.12091396437E+02  0.25040364409E+02 -0.63696357695E+02  0.69501422296E+02  0.00000000000E+00 0.  1.
<mgrwt>
<rscale>  0 0.12499977E+03</rscale>
<asrwt>0</asrwt>
<pdfrwt beam="1">  1       21 0.10864153E-02 0.12499977E+03</pdfrwt>
<pdfrwt beam="2">  1       21 0.85101235E-01 0.12499977E+03</pdfrwt>
<totfact> 0.38955967E+06</totfact>
</mgrwt>
</event>
<event>
 9    1  0.4541185E-002  0.1249970E+03  0.7818608E-02  0.1235074E+00
         21   -1    0    0  503  502  0.00000000000E+00  0.00000000000E+00  0.65198744128E+02  0.65198744128E+02  0.00000000000E+00 0. -1.
         21   -1    0    0  502  503 -0.00000000000E+00 -0.00000000000E+00 -0.59910077050E+02  0.59910077050E+02  0.00000000000E+00 0. -1.
         25    2    1    2    0    0  0.17763568394E-14  0.00000000000E+00  0.52886670779E+01  0.12510882118E+03  0.12499698851E+03 0.  0.
    9000006    2    3    3    0    0  0.13517454075E+02 -0.11105102753E+02  0.25203225778E+01  0.62548519923E+02  0.59999337054E+02 0.  0.
    9000007    2    3    3    0    0 -0.13517454075E+02  0.11105102753E+02  0.27683445001E+01  0.62560301255E+02  0.60000689079E+02 0.  0.
          5    1    4    4  501    0  0.11964741736E+02 -0.19639067326E+02  0.27225289382E+02  0.35946549099E+02  0.47000000000E+01 0. -1.
         -5    1    4    4    0  501  0.15527123396E+01  0.85339645732E+01 -0.24704966804E+02  0.26601970824E+02  0.47000000000E+01 0. -1.
         12    1    5    5    0    0 -0.15995699563E+02 -0.10924836606E+02  0.24690934288E+02  0.31382426538E+02  0.00000000000E+00 0. -1.
        -12    1    5    5    0    0  0.24782454876E+01  0.22029939359E+02 -0.21922589788E+02  0.31177874717E+02  0.00000000000E+00 0. -1.
<mgrwt>
<rscale>  0 0.12499699E+03</rscale>
<asrwt>0</asrwt>
<pdfrwt beam="1">  1       21 0.10030576E-01 0.12499699E+03</pdfrwt>
<pdfrwt beam="2">  1       21 0.92169350E-02 0.12499699E+03</pdfrwt>
<totfact> 0.74034584E+06</totfact>
</mgrwt>
</event>
<event>
 9    1  0.4541185E-002  0.1250004E+03  0.7818608E-02  0.1235069E+00
         21   -1    0    0  503  502  0.00000000000E+00  0.00000000000E+00  0.15490778946E+02  0.15490778946E+02  0.00000000000E+00 0.  1.
         21   -1    0    0  502  503 -0.00000000000E+00 -0.00000000000E+00 -0.25216781237E+03  0.25216781237E+03  0.00000000000E+00 0.  1.
         25    2    1    2    0    0 -0.17763568394E-14  0.17763568394E-14 -0.23667703342E+03  0.26765859132E+03  0.12500041342E+03 0.  0.
    9000006    2    3    3    0    0 -0.84105950222E+01 -0.79696037486E+01 -0.14642310458E+03  0.15866341369E+03  0.60000838300E+02 0.  0.
    9000007    2    3    3    0    0  0.84105950222E+01  0.79696037486E+01 -0.90253928838E+02  0.10899517762E+03  0.59999369840E+02 0.  0.
          5    1    4    4  501    0 -0.27680910843E+02  0.13010944121E+02 -0.59426982608E+02  0.67001296659E+02  0.47000000000E+01 0. -1.
         -5    1    4    4    0  501  0.19270315821E+02 -0.20980547869E+02 -0.86996121975E+02  0.91662117036E+02  0.47000000000E+01 0. -1.
         12    1    5    5    0    0 -0.11127220611E+02 -0.21658038111E+02 -0.26207694080E+02  0.35773298454E+02  0.00000000000E+00 0.  1.
        -12    1    5    5    0    0  0.19537815633E+02  0.29627641859E+02 -0.64046234759E+02  0.73221879166E+02  0.00000000000E+00 0.  1.
<mgrwt>
<rscale>  0 0.12500041E+03</rscale>
<asrwt>0</asrwt>
<pdfrwt beam="1">  1       21 0.23831968E-02 0.12500041E+03</pdfrwt>
<pdfrwt beam="2">  1       21 0.38795047E-01 0.12500041E+03</pdfrwt>
<totfact> 0.58253748E+06</totfact>
</mgrwt>
</event>
<event>
 9    1  0.4541185E-002  0.1250006E+03  0.7818608E-02  0.1235068E+00
         21   -1    0    0  503  502  0.00000000000E+00  0.00000000000E+00  0.38588036958E+03  0.38588036958E+03  0.00000000000E+00 0.  1.
         21   -1    0    0  502  503 -0.00000000000E+00 -0.00000000000E+00 -0.10123046405E+02  0.10123046405E+02  0.00000000000E+00 0.  1.
         25    2    1    2    0    0  0.00000000000E+00  0.00000000000E+00  0.37575732317E+03  0.39600341598E+03  0.12500055820E+03 0.  0.
    9000006    2    3    3    0    0  0.11674789599E+01 -0.17357820207E+02  0.19386608071E+03  0.20368309421E+03  0.60000739086E+02 0.  0.
    9000007    2    3    3    0    0 -0.11674789599E+01  0.17357820207E+02  0.18189124246E+03  0.19232032177E+03  0.60000209577E+02 0.  0.
          5    1    4    4  501    0 -0.13808505625E+02  0.14661763107E+02  0.33259909137E+02  0.39165720737E+02  0.47000000000E+01 0.  1.
         -5    1    4    4    0  501  0.14975984585E+02 -0.32019583314E+02  0.16060617157E+03  0.16451737348E+03  0.47000000000E+01 0.  1.
         12    1    5    5    0    0 -0.89242563625E+01  0.37053818620E+02  0.14355134032E+03  0.14852479636E+03  0.00000000000E+00 0. -1.
        -12    1    5    5    0    0  0.77567774026E+01 -0.19695998413E+02  0.38339902147E+02  0.43795525409E+02  0.00000000000E+00 0. -1.
<mgrwt>
<rscale>  0 0.12500056E+03</rscale>
<asrwt>0</asrwt>
<pdfrwt beam="1">  1       21 0.59366199E-01 0.12500056E+03</pdfrwt>
<pdfrwt beam="2">  1       21 0.15573921E-02 0.12500056E+03</pdfrwt>
<totfact> 0.48306905E+06</totfact>
</mgrwt>
</event>
<event>
 9    1  0.4541185E-002  0.1250020E+03  0.7818608E-02  0.1235066E+00
         21   -1    0    0  503  502  0.00000000000E+00  0.00000000000E+00  0.40374429605E+02  0.40374429605E+02  0.00000000000E+00 0. -1.
         21   -1    0    0  502  503 -0.00000000000E+00 -0.00000000000E+00 -0.96753659208E+02  0.96753659208E+02  0.00000000000E+00 0. -1.
         25    2    1    2    0    0 -0.35527136788E-14  0.00000000000E+00 -0.56379229603E+02  0.13712808881E+03  0.12500198083E+03 0.  0.
    9000006    2    3    3    0    0  0.17110728118E+02  0.19076072762E+01 -0.31657414684E+02  0.69989530331E+02  0.59999387241E+02 0.  0.
    9000007    2    3    3    0    0 -0.17110728118E+02 -0.19076072762E+01 -0.24721814919E+02  0.67138558482E+02  0.60000015999E+02 0.  0.
          5    1    4    4  501    0  0.18872871923E+01  0.29627469860E+02 -0.11437006472E+02  0.32159663249E+02  0.47000000000E+01 0. -1.
         -5    1    4    4    0  501  0.15223440925E+02 -0.27719862583E+02 -0.20220408212E+02  0.37829867083E+02  0.47000000000E+01 0. -1.
         12    1    5    5    0    0 -0.11788838757E+02  0.17926870525E+02  0.12351817422E+02  0.24757156535E+02  0.00000000000E+00 0. -1.
        -12    1    5    5    0    0 -0.53218893604E+01 -0.19834477801E+02 -0.37073632341E+02  0.42381401947E+02  0.00000000000E+00 0. -1.
<mgrwt>
<rscale>  0 0.12500198E+03</rscale>
<asrwt>0</asrwt>
<pdfrwt beam="1">  1       21 0.62114507E-02 0.12500198E+03</pdfrwt>
<pdfrwt beam="2">  1       21 0.14885178E-01 0.12500198E+03</pdfrwt>
<totfact> 0.72412249E+06</totfact>
</mgrwt>
</event>
<event>
 9    1  0.4541185E-002  0.1250000E+03  0.7818608E-02  0.1235069E+00
         21   -1    0    0  503  502  0.00000000000E+00  0.00000000000E+00  0.19649864776E+03  0.19649864776E+03  0.00000000000E+00 0.  1.
         21   -1    0    0  502  503 -0.00000000000E+00 -0.00000000000E+00 -0.19879258352E+02  0.19879258352E+02  0.00000000000E+00 0.  1.
         25    2    1    2    0    0  0.00000000000E+00  0.88817841970E-15  0.17661938941E+03  0.21637790611E+03  0.12499995815E+03 0.  0.
    9000006    2    3    3    0    0  0.87480253006E+01  0.12801763166E+01  0.11445270731E+03  0.12952815666E+03  0.59999619646E+02 0.  0.
    9000007    2    3    3    0    0 -0.87480253006E+01 -0.12801763166E+01  0.62166682095E+02  0.86849749454E+02  0.60000131829E+02 0.  0.
          5    1    4    4  501    0  0.12539919449E+02  0.77409763207E+01  0.11870972097E+03  0.11971324132E+03  0.47000000000E+01 0. -1.
         -5    1    4    4    0  501 -0.37918941486E+01 -0.64608000041E+01 -0.42570136536E+01  0.98149153421E+01  0.47000000000E+01 0. -1.
         12    1    5    5    0    0  0.34137514839E+01  0.14138376038E+02 -0.61316168976E+01  0.15784299223E+02  0.00000000000E+00 0. -1.
        -12    1    5    5    0    0 -0.12161776785E+02 -0.15418552355E+02  0.68298298992E+02  0.71065450231E+02  0.00000000000E+00 0. -1.
<mgrwt>
<rscale>  0 0.12499996E+03</rscale>
<asrwt>0</asrwt>
<pdfrwt beam="1">  1       21 0.30230560E-01 0.12499996E+03</pdfrwt>
<pdfrwt beam="2">  1       21 0.30583476E-02 0.12499996E+03</pdfrwt>
<totfact> 0.63194759E+06</totfact>
</mgrwt>
</event>
<event>
 9    1  0.4541185E-002  0.1249975E+03  0.7818608E-02  0.1235073E+00
         21   -1    0    0  503  502  0.00000000000E+00  0.00000000000E+00  0.16550682831E+02  0.16550682831E+02  0.00000000000E+00 0.  1.
         21   -1    0    0  502  503 -0.00000000000E+00 -0.00000000000E+00 -0.23600816391E+03  0.23600816391E+03  0.00000000000E+00 0.  1.
         25    2    1    2    0    0  0.00000000000E+00 -0.17763568394E-14 -0.21945748108E+03  0.25255884674E+03  0.12499754024E+03 0.  0.
    9000006    2    3    3    0    0  0.10994558183E+02 -0.90180486797E+01 -0.13034053192E+03  0.14419062292E+03  0.60000633034E+02 0.  0.
    9000007    2    3    3    0    0 -0.10994558183E+02  0.90180486797E+01 -0.89116949160E+02  0.10836822383E+03  0.59996964888E+02 0.  0.
          5    1    4    4  501    0 -0.19934865518E+02 -0.10362592946E+02 -0.91313492353E+02  0.94154267463E+02  0.47000000000E+01 0.  1.
         -5    1    4    4    0  501  0.30929423701E+02  0.13445442660E+01 -0.39027039568E+02  0.50036355455E+02  0.47000000000E+01 0.  1.
         12    1    5    5    0    0 -0.15642598839E+02  0.42757935783E+01  0.25893129607E+01  0.16421871110E+02  0.00000000000E+00 0. -1.
        -12    1    5    5    0    0  0.46480406559E+01  0.47422551014E+01 -0.91706262121E+02  0.91946352715E+02  0.00000000000E+00 0. -1.
<mgrwt>
<rscale>  0 0.12499754E+03</rscale>
<asrwt>0</asrwt>
<pdfrwt beam="1">  1       21 0.25462590E-02 0.12499754E+03</pdfrwt>
<pdfrwt beam="2">  1       21 0.36308946E-01 0.12499754E+03</pdfrwt>
<totfact> 0.59641809E+06</totfact>
</mgrwt>
</event>
<event>
 9    1  0.4541185E-002  0.1250042E+03  0.7818608E-02  0.1235063E+00
         21   -1    0    0  503  502  0.00000000000E+00  0.00000000000E+00  0.18688845757E+03  0.18688845757E+03  0.00000000000E+00 0. -1.
         21   -1    0    0  502  503 -0.00000000000E+00 -0.00000000000E+00 -0.20902921406E+02  0.20902921406E+02  0.00000000000E+00 0. -1.
         25    2    1    2    0    0  0.00000000000E+00  0.88817841970E-15  0.16598553617E+03  0.20779137898E+03  0.12500423577E+03 0.  0.
    9000006    2    3    3    0    0 -0.87226385040E+01  0.28012383822E+00  0.57747412750E+02  0.83728099318E+02  0.59995566872E+02 0.  0.
    9000007    2    3    3    0    0  0.87226385040E+01 -0.28012383822E+00  0.10823812342E+03  0.12406327966E+03  0.60000359229E+02 0.  0.
          5    1    4    4  501    0 -0.29009001552E+02 -0.66510956647E+01  0.10983074240E+02  0.32069879394E+02  0.47000000000E+01 0.  1.
         -5    1    4    4    0  501  0.20286363048E+02  0.69312195029E+01  0.46764338509E+02  0.51658219924E+02  0.47000000000E+01 0.  1.
         12    1    5    5    0    0  0.12409653079E+02  0.82284725286E+01 -0.53127269321E+00  0.14899312077E+02  0.00000000000E+00 0.  1.
        -12    1    5    5    0    0 -0.36870145746E+01 -0.85085963668E+01  0.10876939611E+03  0.10916396758E+03  0.00000000000E+00 0.  1.
<mgrwt>
<rscale>  0 0.12500424E+03</rscale>
<asrwt>0</asrwt>
<pdfrwt beam="1">  1       21 0.28752069E-01 0.12500424E+03</pdfrwt>
<pdfrwt beam="2">  1       21 0.32158342E-02 0.12500424E+03</pdfrwt>
<totfact> 0.64085792E+06</totfact>
</mgrwt>
</event>
<event>
 9    1  0.4541185E-002  0.1249985E+03  0.7818608E-02  0.1235072E+00
         21   -1    0    0  503  502  0.00000000000E+00  0.00000000000E+00  0.18077471159E+03  0.18077471159E+03  0.00000000000E+00 0. -1.
         21   -1    0    0  502  503 -0.00000000000E+00 -0.00000000000E+00 -0.21607855645E+02  0.21607855645E+02  0.00000000000E+00 0. -1.
         25    2    1    2    0    0  0.00000000000E+00 -0.35527136788E-14  0.15916685595E+03  0.20238256724E+03  0.12499846195E+03 0.  0.
    9000006    2    3    3    0    0  0.72660031660E+01  0.90454659487E+00  0.53855770283E+02  0.80958080336E+02  0.60001281422E+02 0.  0.
    9000007    2    3    3    0    0 -0.72660031660E+01 -0.90454659487E+00  0.10531108567E+03  0.12142448690E+03  0.59998902066E+02 0.  0.
          5    1    4    4  501    0 -0.11838269360E+02 -0.19795663781E+02  0.45457620891E+02  0.51190802134E+02  0.47000000000E+01 0.  1.
         -5    1    4    4    0  501  0.19104272526E+02  0.20700210376E+02  0.83981493914E+01  0.29767278202E+02  0.47000000000E+01 0.  1.
         12    1    5    5    0    0  0.18185941101E+02 -0.19105275890E+02  0.66703160153E+02  0.71729015015E+02  0.00000000000E+00 0.  1.
        -12    1    5    5    0    0 -0.25451944267E+02  0.18200729295E+02  0.38607925513E+02  0.49695471889E+02  0.00000000000E+00 0.  1.
<mgrwt>
<rscale>  0 0.12499846E+03</rscale>
<asrwt>0</asrwt>
<pdfrwt beam="1">  1       21 0.27811493E-01 0.12499846E+03</pdfrwt>
<pdfrwt beam="2">  1       21 0.33242856E-02 0.12499846E+03</pdfrwt>
<totfact> 0.64672514E+06</totfact>
</mgrwt>
</event>
<event>
 9    1  0.4541185E-002  0.1249971E+03  0.7818608E-02  0.1235074E+00
         21   -1    0    0  503  502  0.00000000000E+00  0.00000000000E+00  0.13672587694E+03  0.13672587694E+03  0.00000000000E+00 0.  1.
         21   -1    0    0  502  503 -0.00000000000E+00 -0.00000000000E+00 -0.28568604888E+02  0.28568604888E+02  0.00000000000E+00 0.  1.
         25    2    1    2    0    0  0.00000000000E+00 -0.17763568394E-14  0.10815727205E+03  0.16529448182E+03  0.12499708086E+03 0.  0.
    9000006    2    3    3    0    0 -0.14109250661E+02 -0.65322048209E+01  0.64699671933E+02  0.89595299560E+02  0.59996079047E+02 0.  0.
    9000007    2    3    3    0    0  0.14109250661E+02  0.65322048209E+01  0.43457600114E+02  0.75699182263E+02  0.60000521111E+02 0.  0.
          5    1    4    4  501    0  0.67937769734E+01 -0.57026178450E+00  0.66750321134E+02  0.67261995031E+02  0.47000000000E+01 0.  1.
         -5    1    4    4    0  501 -0.20903027635E+02 -0.59619430364E+01 -0.20506492006E+01  0.22333304529E+02  0.47000000000E+01 0.  1.
         12    1    5    5    0    0  0.25137436844E+02  0.22740273514E+02  0.74580281766E+01  0.34707822675E+02  0.00000000000E+00 0. -1.
        -12    1    5    5    0    0 -0.11028186183E+02 -0.16208068693E+02  0.35999571937E+02  0.40991359588E+02  0.00000000000E+00 0. -1.
<mgrwt>
<rscale>  0 0.12499708E+03</rscale>
<asrwt>0</asrwt>
<pdfrwt beam="1">  1       21 0.21034750E-01 0.12499708E+03</pdfrwt>
<pdfrwt beam="2">  1       21 0.43951700E-02 0.12499708E+03</pdfrwt>
<totfact> 0.68883395E+06</totfact>
</mgrwt>
</event>
<event>
 9    1  0.4541185E-002  0.1249996E+03  0.7818608E-02  0.1235070E+00
         21   -1    0    0  503  502  0.00000000000E+00  0.00000000000E+00  0.74476779323E+01  0.74476779323E+01  0.00000000000E+00 0. -1.
         21   -1    0    0  502  503 -0.00000000000E+00 -0.00000000000E+00 -0.52448886297E+03  0.52448886297E+03  0.00000000000E+00 0. -1.
         25    2    1    2    0    0  0.35527136788E-14  0.00000000000E+00 -0.51704118504E+03  0.53193654090E+03  0.12499958609E+03 0.  0.
    9000006    2    3    3    0    0  0.13427657517E+02  0.10896033200E+02 -0.26990862448E+03  0.27703757404E+03  0.60001052773E+02 0.  0.
    9000007    2    3    3    0    0 -0.13427657517E+02 -0.10896033200E+02 -0.24713256056E+03  0.25489896687E+03  0.59999627459E+02 0.  0.
          5    1    4    4  501    0 -0.12666932891E+02 -0.16540303852E+02 -0.59956916490E+02  0.63647110504E+02  0.47000000000E+01 0. -1.
         -5    1    4    4    0  501  0.26094590408E+02  0.27436337052E+02 -0.20995170799E+03  0.21339046353E+03  0.47000000000E+01 0. -1.
         12    1    5    5    0    0 -0.10516675682E+01  0.24683881936E+02 -0.92264922155E+02  0.95515526970E+02  0.00000000000E+00 0.  1.
        -12    1    5    5    0    0 -0.12375989949E+02 -0.35579915136E+02 -0.15486763840E+03  0.15938343990E+03  0.00000000000E+00 0.  1.
<mgrwt>
<rscale>  0 0.12499959E+03</rscale>
<asrwt>0</asrwt>
<pdfrwt beam="1">  1       21 0.11457968E-02 0.12499959E+03</pdfrwt>
<pdfrwt beam="2">  1       21 0.80690581E-01 0.12499959E+03</pdfrwt>
<totfact> 0.40363825E+06</totfact>
</mgrwt>
</event>
<event>
 9    1  0.4541185E-002  0.1249955E+03  0.7818608E-02  0.1235076E+00
         21   -1    0    0  503  502  0.00000000000E+00  0.00000000000E+00  0.15794608715E+04  0.15794608715E+04  0.00000000000E+00 0.  1.
         21   -1    0    0  502  503 -0.00000000000E+00 -0.00000000000E+00 -0.24729754487E+01  0.24729754487E+01  0.00000000000E+00 0.  1.
         25    2    1    2    0    0  0.00000000000E+00  0.17763568394E-14  0.15769878961E+04  0.15819338470E+04  0.12499548724E+03 0.  0.
    9000006    2    3    3    0    0  0.13306037690E+02  0.11032890080E+02  0.75427807695E+03  0.75685806309E+03  0.59999458291E+02 0.  0.
    9000007    2    3    3    0    0 -0.13306037690E+02 -0.11032890080E+02  0.82270981912E+03  0.82507578387E+03  0.59998561325E+02 0.  0.
          5    1    4    4  501    0 -0.17885838435E+02  0.19678219095E+02  0.23401969178E+03  0.23557258258E+03  0.47000000000E+01 0. -1.
         -5    1    4    4    0  501  0.31191876124E+02 -0.86453290148E+01  0.52025838517E+03  0.52128548051E+03  0.47000000000E+01 0. -1.
         12    1    5    5    0    0 -0.43784590351E+00 -0.27569190797E+02  0.18710696135E+03  0.18912764731E+03  0.00000000000E+00 0.  1.
        -12    1    5    5    0    0 -0.12868191786E+02  0.16536300718E+02  0.63560285776E+03  0.63594813656E+03  0.00000000000E+00 0.  1.
<mgrwt>
<rscale>  0 0.12499549E+03</rscale>
<asrwt>0</asrwt>
<pdfrwt beam="1">  1       21 0.24299317E+00 0.12499549E+03</pdfrwt>
<pdfrwt beam="2">  1       21 0.38045902E-03 0.12499549E+03</pdfrwt>
<totfact> 0.12822361E+06</totfact>
</mgrwt>
</event>
<event>
 9    1  0.4541185E-002  0.1250024E+03  0.7818608E-02  0.1235065E+00
         21   -1    0    0  503  502  0.00000000000E+00  0.00000000000E+00  0.13085854118E+03  0.13085854118E+03  0.00000000000E+00 0. -1.
         21   -1    0    0  502  503 -0.00000000000E+00 -0.00000000000E+00 -0.29852106578E+02  0.29852106578E+02  0.00000000000E+00 0. -1.
         25    2    1    2    0    0  0.00000000000E+00 -0.35527136788E-14  0.10100643460E+03  0.16071064776E+03  0.12500244986E+03 0.  0.
    9000006    2    3    3    0    0  0.25327909585E+01 -0.11636169037E+02  0.67002371676E+02  0.90725097530E+02  0.59999250427E+02 0.  0.
    9000007    2    3    3    0    0 -0.25327909585E+01  0.11636169037E+02  0.34004062927E+02  0.69985550229E+02  0.59999045704E+02 0.  0.
          5    1    4    4  501    0  0.16694431955E+02 -0.19723763493E+02  0.68814709462E+02  0.73656534965E+02  0.47000000000E+01 0. -1.
         -5    1    4    4    0  501 -0.14161640997E+02  0.80875944560E+01 -0.18123377868E+01  0.17068562566E+02  0.47000000000E+01 0. -1.
         12    1    5    5    0    0 -0.11327674845E+02 -0.17668086253E+02 -0.38241158152E+01  0.21333104580E+02  0.00000000000E+00 0.  1.
        -12    1    5    5    0    0  0.87948838862E+01  0.29304255290E+02  0.37828178742E+02  0.48652445649E+02  0.00000000000E+00 0.  1.
<mgrwt>
<rscale>  0 0.12500245E+03</rscale>
<asrwt>0</asrwt>
<pdfrwt beam="1">  1       21 0.20132083E-01 0.12500245E+03</pdfrwt>
<pdfrwt beam="2">  1       21 0.45926319E-02 0.12500245E+03</pdfrwt>
<totfact> 0.69428442E+06</totfact>
</mgrwt>
</event>
<event>
 9    1  0.4541185E-002  0.1250027E+03  0.7818608E-02  0.1235065E+00
         21   -1    0    0  503  502  0.00000000000E+00  0.00000000000E+00  0.77613457052E+02  0.77613457052E+02  0.00000000000E+00 0. -1.
         21   -1    0    0  502  503 -0.00000000000E+00 -0.00000000000E+00 -0.50331702008E+02  0.50331702008E+02  0.00000000000E+00 0. -1.
         25    2    1    2    0    0  0.35527136788E-14  0.88817841970E-15  0.27281755044E+02  0.12794515906E+03  0.12500267825E+03 0.  0.
    9000006    2    3    3    0    0 -0.16330270492E+02 -0.29862016960E+01  0.19317330487E+02  0.65182528164E+02  0.60000063215E+02 0.  0.
    9000007    2    3    3    0    0  0.16330270492E+02  0.29862016960E+01  0.79644245566E+01  0.62762630896E+02  0.60001005355E+02 0.  0.
          5    1    4    4  501    0  0.31871536049E+01 -0.11314063645E+02  0.35756620928E+02  0.37931410789E+02  0.47000000000E+01 0. -1.
         -5    1    4    4    0  501 -0.19517424097E+02  0.83278619489E+01 -0.16439290441E+02  0.27251117375E+02  0.47000000000E+01 0. -1.
         12    1    5    5    0    0 -0.15837610234E+02 -0.62182571932E+01 -0.14588526728E+02  0.22412535165E+02  0.00000000000E+00 0.  1.
        -12    1    5    5    0    0  0.32167880726E+02  0.92044588892E+01  0.22552951285E+02  0.40350095731E+02  0.00000000000E+00 0.  1.
<mgrwt>
<rscale>  0 0.12500268E+03</rscale>
<asrwt>0</asrwt>
<pdfrwt beam="1">  1       21 0.11940532E-01 0.12500268E+03</pdfrwt>
<pdfrwt beam="2">  1       21 0.77433389E-02 0.12500268E+03</pdfrwt>
<totfact> 0.73635934E+06</totfact>
</mgrwt>
</event>
<event>
 9    1  0.4541185E-002  0.1249995E+03  0.7818608E-02  0.1235070E+00
         21   -1    0    0  503  502  0.00000000000E+00  0.00000000000E+00  0.56622329055E+02  0.56622329055E+02  0.00000000000E+00 0. -1.
         21   -1    0    0  502  503 -0.00000000000E+00 -0.00000000000E+00 -0.68987278555E+02  0.68987278555E+02  0.00000000000E+00 0. -1.
         25    2    1    2    0    0  0.00000000000E+00  0.17763568394E-14 -0.12364949501E+02  0.12560960761E+03  0.12499952619E+03 0.  0.
    9000006    2    3    3    0    0  0.11731764784E+02  0.68377542762E+01 -0.17290198764E+02  0.63896829056E+02  0.59995538181E+02 0.  0.
    9000007    2    3    3    0    0 -0.11731764784E+02 -0.68377542762E+01  0.49252492632E+01  0.61712778554E+02  0.59998498048E+02 0.  0.
          5    1    4    4  501    0 -0.39872219711E+01  0.31185303720E+02 -0.12457004686E+02  0.34142174403E+02  0.47000000000E+01 0.  1.
         -5    1    4    4    0  501  0.15718986755E+02 -0.24347549444E+02 -0.48331940779E+01  0.29754654653E+02  0.47000000000E+01 0.  1.
         12    1    5    5    0    0 -0.21990419073E+02  0.15098772074E+02  0.19864418087E+02  0.33258781624E+02  0.00000000000E+00 0.  1.
        -12    1    5    5    0    0  0.10258654289E+02 -0.21936526350E+02 -0.14939168824E+02  0.28453996930E+02  0.00000000000E+00 0.  1.
<mgrwt>
<rscale>  0 0.12499953E+03</rscale>
<asrwt>0</asrwt>
<pdfrwt beam="1">  1       21 0.87111276E-02 0.12499953E+03</pdfrwt>
<pdfrwt beam="2">  1       21 0.10613427E-01 0.12499953E+03</pdfrwt>
<totfact> 0.73960998E+06</totfact>
</mgrwt>
</event>
<event>
 9    1  0.4541185E-002  0.1249982E+03  0.7818608E-02  0.1235072E+00
         21   -1    0    0  503  502  0.00000000000E+00  0.00000000000E+00  0.29729865294E+03  0.29729865294E+03  0.00000000000E+00 0.  1.
         21   -1    0    0  502  503 -0.00000000000E+00 -0.00000000000E+00 -0.13138762102E+02  0.13138762102E+02  0.00000000000E+00 0.  1.
         25    2    1    2    0    0  0.00000000000E+00  0.35527136788E-14  0.28415989084E+03  0.31043741504E+03  0.12499818037E+03 0.  0.
    9000006    2    3    3    0    0 -0.97352203126E+01 -0.14192503538E+02  0.13416156345E+03  0.14796969626E+03  0.59995868465E+02 0.  0.
    9000007    2    3    3    0    0  0.97352203126E+01  0.14192503538E+02  0.14999832739E+03  0.16246771878E+03  0.60000497961E+02 0.  0.
          5    1    4    4  501    0 -0.15224007822E+02 -0.20523243929E+02  0.18465288467E+02  0.31875238567E+02  0.47000000000E+01 0.  1.
         -5    1    4    4    0  501  0.54887875097E+01  0.63307403904E+01  0.11569627498E+03  0.11609445769E+03  0.47000000000E+01 0.  1.
         12    1    5    5    0    0  0.20024918440E+02  0.24497699464E+02  0.14272401197E+03  0.14618918643E+03  0.00000000000E+00 0.  1.
        -12    1    5    5    0    0 -0.10289698127E+02 -0.10305195925E+02  0.72743154210E+01  0.16278532350E+02  0.00000000000E+00 0.  1.
<mgrwt>
<rscale>  0 0.12499818E+03</rscale>
<asrwt>0</asrwt>
<pdfrwt beam="1">  1       21 0.45738249E-01 0.12499818E+03</pdfrwt>
<pdfrwt beam="2">  1       21 0.20213482E-02 0.12499818E+03</pdfrwt>
<totfact> 0.54602282E+06</totfact>
</mgrwt>
</event>
<event>
 9    1  0.4541185E-002  0.1250012E+03  0.7818608E-02  0.1235067E+00
         21   -1    0    0  503  502  0.00000000000E+00  0.00000000000E+00  0.13070826260E+04  0.13070826260E+04  0.00000000000E+00 0.  1.
         21   -1    0    0  502  503 -0.00000000000E+00 -0.00000000000E+00 -0.29885843545E+01  0.29885843545E+01  0.00000000000E+00 0.  1.
         25    2    1    2    0    0  0.00000000000E+00  0.00000000000E+00  0.13040940417E+04  0.13100712104E+04  0.12500122697E+03 0.  0.
    9000006    2    3    3    0    0 -0.93681623174E+01 -0.46946400872E+01  0.50510408298E+03  0.50876302001E+03  0.59998948113E+02 0.  0.
    9000007    2    3    3    0    0  0.93681623174E+01  0.46946400872E+01  0.79898995868E+03  0.80130819036E+03  0.60000497966E+02 0.  0.
          5    1    4    4  501    0  0.14133499621E+02  0.12267318140E+02  0.68305739057E+02  0.70978918659E+02  0.47000000000E+01 0. -1.
         -5    1    4    4    0  501 -0.23501661938E+02 -0.16961958228E+02  0.43679834392E+03  0.43778410135E+03  0.47000000000E+01 0. -1.
         12    1    5    5    0    0 -0.18498432070E+02  0.28393161595E+01  0.98527873167E+02  0.10028955826E+03  0.00000000000E+00 0. -1.
        -12    1    5    5    0    0  0.27866594387E+02  0.18553239278E+01  0.70046208551E+03  0.70101863210E+03  0.00000000000E+00 0. -1.
<mgrwt>
<rscale>  0 0.12500123E+03</rscale>
<asrwt>0</asrwt>
<pdfrwt beam="1">  1       21 0.20108918E+00 0.12500123E+03</pdfrwt>
<pdfrwt beam="2">  1       21 0.45978325E-03 0.12500123E+03</pdfrwt>
<totfact> 0.17072003E+06</totfact>
</mgrwt>
</event>
<event>
 9    1  0.4541185E-002  0.1249997E+03  0.7818608E-02  0.1235070E+00
         21   -1    0    0  503  502  0.00000000000E+00  0.00000000000E+00  0.26013570159E+03  0.26013570159E+03  0.00000000000E+00 0. -1.
         21   -1    0    0  502  503 -0.00000000000E+00 -0.00000000000E+00 -0.15016131973E+02  0.15016131973E+02  0.00000000000E+00 0. -1.
         25    2    1    2    0    0  0.00000000000E+00 -0.17763568394E-14  0.24511956962E+03  0.27515183357E+03  0.12499971242E+03 0.  0.
    9000006    2    3    3    0    0  0.72499691405E+01  0.11088029080E+02  0.14773026849E+03  0.15999914026E+03  0.59999885124E+02 0.  0.
    9000007    2    3    3    0    0 -0.72499691405E+01 -0.11088029080E+02  0.97389301127E+02  0.11515269330E+03  0.59999669661E+02 0.  0.
          5    1    4    4  501    0  0.17711694763E+02  0.16056646192E+02  0.14522115677E+03  0.14725078740E+03  0.47000000000E+01 0.  1.
         -5    1    4    4    0  501 -0.10461725622E+02 -0.49686171116E+01  0.25091117253E+01  0.12748352860E+02  0.47000000000E+01 0.  1.
         12    1    5    5    0    0 -0.19938822057E+02  0.10768483339E+02  0.11090233631E+02  0.25229152591E+02  0.00000000000E+00 0.  1.
        -12    1    5    5    0    0  0.12688852917E+02 -0.21856512419E+02  0.86299067495E+02  0.89923540711E+02  0.00000000000E+00 0.  1.
<mgrwt>
<rscale>  0 0.12499971E+03</rscale>
<asrwt>0</asrwt>
<pdfrwt beam="1">  1       21 0.40020874E-01 0.12499971E+03</pdfrwt>
<pdfrwt beam="2">  1       21 0.23101743E-02 0.12499971E+03</pdfrwt>
<totfact> 0.57586925E+06</totfact>
</mgrwt>
</event>
<event>
 9    1  0.4541185E-002  0.1249992E+03  0.7818608E-02  0.1235071E+00
         21   -1    0    0  503  502  0.00000000000E+00  0.00000000000E+00  0.54726181369E+01  0.54726181369E+01  0.00000000000E+00 0. -1.
         21   -1    0    0  502  503 -0.00000000000E+00 -0.00000000000E+00 -0.71377177277E+03  0.71377177277E+03  0.00000000000E+00 0. -1.
         25    2    1    2    0    0 -0.26645352591E-14  0.00000000000E+00 -0.70829915463E+03  0.71924439091E+03  0.12499920559E+03 0.  0.
    9000006    2    3    3    0    0  0.57305517194E+01  0.12213089861E+02 -0.41824800263E+03  0.42274509797E+03  0.60000228086E+02 0.  0.
    9000007    2    3    3    0    0 -0.57305517194E+01 -0.12213089861E+02 -0.29005115201E+03  0.29649929293E+03  0.60001342853E+02 0.  0.
          5    1    4    4  501    0  0.68181656561E+01 -0.23507605992E+02 -0.19885560027E+03  0.20041141355E+03  0.47000000000E+01 0. -1.
         -5    1    4    4    0  501 -0.10876139366E+01  0.35720695853E+02 -0.21939240235E+03  0.22233368442E+03  0.47000000000E+01 0. -1.
         12    1    5    5    0    0 -0.30067956669E+02 -0.19184805122E+02 -0.18811902079E+03  0.19147037564E+03  0.00000000000E+00 0. -1.
        -12    1    5    5    0    0  0.24337404950E+02  0.69717152617E+01 -0.10193213122E+03  0.10502891729E+03  0.00000000000E+00 0. -1.
<mgrwt>
<rscale>  0 0.12499921E+03</rscale>
<asrwt>0</asrwt>
<pdfrwt beam="1">  1       21 0.84194154E-03 0.12499921E+03</pdfrwt>
<pdfrwt beam="2">  1       21 0.10981100E+00 0.12499921E+03</pdfrwt>
<totfact> 0.32181928E+06</totfact>
</mgrwt>
</event>
<event>
 9    1  0.4541185E-002  0.1249943E+03  0.7818608E-02  0.1235078E+00
         21   -1    0    0  503  502  0.00000000000E+00  0.00000000000E+00  0.13608936131E+03  0.13608936131E+03  0.00000000000E+00 0. -1.
         21   -1    0    0  502  503 -0.00000000000E+00 -0.00000000000E+00 -0.28700932368E+02  0.28700932368E+02  0.00000000000E+00 0. -1.
         25    2    1    2    0    0  0.00000000000E+00 -0.35527136788E-14  0.10738842894E+03  0.16479029368E+03  0.12499426475E+03 0.  0.
    9000006    2    3    3    0    0 -0.13072866788E+02 -0.18290726778E+01  0.68835794302E+02  0.92263522322E+02  0.59999546841E+02 0.  0.
    9000007    2    3    3    0    0  0.13072866788E+02  0.18290726778E+01  0.38552634642E+02  0.72526771358E+02  0.59996513006E+02 0.  0.
          5    1    4    4  501    0 -0.63510939854E+01 -0.30278553203E+02  0.41419124923E+02  0.51911088298E+02  0.47000000000E+01 0. -1.
         -5    1    4    4    0  501 -0.67217728023E+01  0.28449480526E+02  0.27416669379E+02  0.40352434023E+02  0.47000000000E+01 0. -1.
         12    1    5    5    0    0  0.70731703535E+01  0.12387745479E+02  0.52284317654E+02  0.54195348965E+02  0.00000000000E+00 0.  1.
        -12    1    5    5    0    0  0.59996964342E+01 -0.10558672801E+02 -0.13731683012E+02  0.18331422393E+02  0.00000000000E+00 0.  1.
<mgrwt>
<rscale>  0 0.12499426E+03</rscale>
<asrwt>0</asrwt>
<pdfrwt beam="1">  1       21 0.20936825E-01 0.12499426E+03</pdfrwt>
<pdfrwt beam="2">  1       21 0.44155281E-02 0.12499426E+03</pdfrwt>
<totfact> 0.68948908E+06</totfact>
</mgrwt>
</event>
<event>
 9    1  0.4541185E-002  0.1249977E+03  0.7818608E-02  0.1235073E+00
         21   -1    0    0  503  502  0.00000000000E+00  0.00000000000E+00  0.24462057131E+03  0.24462057131E+03  0.00000000000E+00 0.  1.
         21   -1    0    0  502  503 -0.00000000000E+00 -0.00000000000E+00 -0.15968009516E+02  0.15968009516E+02  0.00000000000E+00 0.  1.
         25    2    1    2    0    0  0.00000000000E+00  0.17763568394E-14  0.22865256180E+03  0.26058858083E+03  0.12499765775E+03 0.  0.
    9000006    2    3    3    0    0 -0.12911266372E+02  0.33032799337E+01  0.13798362264E+03  0.15105312332E+03  0.59999612426E+02 0.  0.
    9000007    2    3    3    0    0  0.12911266372E+02 -0.33032799337E+01  0.90668939160E+02  0.10953545751E+03  0.59996228759E+02 0.  0.
          5    1    4    4  501    0 -0.71614400597E+01  0.10690033867E+02  0.13975944180E+03  0.14042918008E+03  0.47000000000E+01 0. -1.
         -5    1    4    4    0  501 -0.57498263126E+01 -0.73867539328E+01 -0.17758191561E+01  0.10623943240E+02  0.47000000000E+01 0. -1.
         12    1    5    5    0    0  0.14461771206E+02  0.24240703509E+02  0.22837257386E+02  0.36308330421E+02  0.00000000000E+00 0.  1.
        -12    1    5    5    0    0 -0.15505048333E+01 -0.27543983443E+02  0.67831681773E+02  0.73227127086E+02  0.00000000000E+00 0.  1.
<mgrwt>
<rscale>  0 0.12499766E+03</rscale>
<asrwt>0</asrwt>
<pdfrwt beam="1">  1       21 0.37633931E-01 0.12499766E+03</pdfrwt>
<pdfrwt beam="2">  1       21 0.24566170E-02 0.12499766E+03</pdfrwt>
<totfact> 0.58898842E+06</totfact>
</mgrwt>
</event>
<event>
 9    1  0.4541185E-002  0.1250035E+03  0.7818608E-02  0.1235064E+00
         21   -1    0    0  503  502  0.00000000000E+00  0.00000000000E+00  0.92777841820E+02  0.92777841820E+02  0.00000000000E+00 0. -1.
         21   -1    0    0  502  503 -0.00000000000E+00 -0.00000000000E+00 -0.42105607708E+02  0.42105607708E+02  0.00000000000E+00 0. -1.
         25    2    1    2    0    0  0.00000000000E+00  0.00000000000E+00  0.50672234112E+02  0.13488344953E+03  0.12500347854E+03 0.  0.
    9000006    2    3    3    0    0  0.14673332942E+02 -0.14087113997E+01  0.35515080242E+02  0.71267201516E+02  0.60003349239E+02 0.  0.
    9000007    2    3    3    0    0 -0.14673332942E+02  0.14087113997E+01  0.15157153870E+02  0.63616248013E+02  0.59999971086E+02 0.  0.
          5    1    4    4  501    0  0.25257441324E+02  0.23098560636E+02  0.22217337705E+02  0.41075320332E+02  0.47000000000E+01 0.  1.
         -5    1    4    4    0  501 -0.10584108382E+02 -0.24507272035E+02  0.13297742537E+02  0.30191881184E+02  0.47000000000E+01 0.  1.
         12    1    5    5    0    0 -0.36548446219E+02 -0.64327033265E+01  0.15884255860E+02  0.40366795480E+02  0.00000000000E+00 0. -1.
        -12    1    5    5    0    0  0.21875113277E+02  0.78414147262E+01 -0.72710198927E+00  0.23249452533E+02  0.00000000000E+00 0. -1.
<mgrwt>
<rscale>  0 0.12500348E+03</rscale>
<asrwt>0</asrwt>
<pdfrwt beam="1">  1       21 0.14273514E-01 0.12500348E+03</pdfrwt>
<pdfrwt beam="2">  1       21 0.64777858E-02 0.12500348E+03</pdfrwt>
<totfact> 0.72705457E+06</totfact>
</mgrwt>
</event>
<event>
 9    1  0.4541185E-002  0.1250039E+03  0.7818608E-02  0.1235063E+00
         21   -1    0    0  503  502  0.00000000000E+00  0.00000000000E+00  0.19260095973E+02  0.19260095973E+02  0.00000000000E+00 0. -1.
         21   -1    0    0  502  503 -0.00000000000E+00 -0.00000000000E+00 -0.20282847001E+03  0.20282847001E+03  0.00000000000E+00 0. -1.
         25    2    1    2    0    0  0.00000000000E+00 -0.17763568394E-14 -0.18356837404E+03  0.22208856598E+03  0.12500393271E+03 0.  0.
    9000006    2    3    3    0    0  0.12571722521E+02 -0.83653894947E+01 -0.10752650355E+03  0.12405570785E+03  0.59998681119E+02 0.  0.
    9000007    2    3    3    0    0 -0.12571722521E+02  0.83653894947E+01 -0.76041870486E+02  0.98032858132E+02  0.60000393815E+02 0.  0.
          5    1    4    4  501    0 -0.16733419672E+02  0.73438633677E+01 -0.74882239819E+02  0.77222920842E+02  0.47000000000E+01 0. -1.
         -5    1    4    4    0  501  0.29305142193E+02 -0.15709252862E+02 -0.32644263732E+02  0.46832787010E+02  0.47000000000E+01 0. -1.
         12    1    5    5    0    0  0.94901261563E+01 -0.22176218750E+02 -0.32031287917E+02  0.40098012147E+02  0.00000000000E+00 0. -1.
        -12    1    5    5    0    0 -0.22061848678E+02  0.30541608245E+02 -0.44010582569E+02  0.57934845985E+02  0.00000000000E+00 0. -1.
<mgrwt>
<rscale>  0 0.12500393E+03</rscale>
<asrwt>0</asrwt>
<pdfrwt beam="1">  1       21 0.29630916E-02 0.12500393E+03</pdfrwt>
<pdfrwt beam="2">  1       21 0.31204381E-01 0.12500393E+03</pdfrwt>
<totfact> 0.62603470E+06</totfact>
</mgrwt>
</event>
<event>
 9    1  0.4541185E-002  0.1250022E+03  0.7818608E-02  0.1235066E+00
         21   -1    0    0  503  502  0.00000000000E+00  0.00000000000E+00  0.61762853230E+03  0.61762853230E+03  0.00000000000E+00 0.  1.
         21   -1    0    0  502  503 -0.00000000000E+00 -0.00000000000E+00 -0.63248184805E+01  0.63248184805E+01  0.00000000000E+00 0.  1.
         25    2    1    2    0    0  0.35527136788E-14 -0.88817841970E-15  0.61130371381E+03  0.62395335078E+03  0.12500221366E+03 0.  0.
    9000006    2    3    3    0    0 -0.91060332644E+01 -0.71712566823E+01  0.24016877177E+03  0.24782114395E+03  0.59999447401E+02 0.  0.
    9000007    2    3    3    0    0  0.91060332644E+01  0.71712566823E+01  0.37113494204E+03  0.37613220683E+03  0.59999542037E+02 0.  0.
          5    1    4    4  501    0  0.47459645840E+01 -0.48661188490E+01  0.22930859614E+03  0.22945745914E+03  0.47000000000E+01 0.  1.
         -5    1    4    4    0  501 -0.13851997848E+02 -0.23051378334E+01  0.10860175631E+02  0.18363684804E+02  0.47000000000E+01 0.  1.
         12    1    5    5    0    0  0.31471370202E+01 -0.11370877442E+02  0.33392537551E+03  0.33413374229E+03  0.00000000000E+00 0.  1.
        -12    1    5    5    0    0  0.59588962442E+01  0.18542134125E+02  0.37209566536E+02  0.41998464545E+02  0.00000000000E+00 0.  1.
<mgrwt>
<rscale>  0 0.12500221E+03</rscale>
<asrwt>0</asrwt>
<pdfrwt beam="1">  1       21 0.95019727E-01 0.12500221E+03</pdfrwt>
<pdfrwt beam="2">  1       21 0.97304948E-03 0.12500221E+03</pdfrwt>
<totfact> 0.36029330E+06</totfact>
</mgrwt>
</event>
<event>
 9    1  0.4541185E-002  0.1250016E+03  0.7818608E-02  0.1235067E+00
         21   -1    0    0  503  502  0.00000000000E+00  0.00000000000E+00  0.22616288122E+02  0.22616288122E+02  0.00000000000E+00 0. -1.
         21   -1    0    0  502  503 -0.00000000000E+00 -0.00000000000E+00 -0.17272296739E+03  0.17272296739E+03  0.00000000000E+00 0. -1.
         25    2    1    2    0    0  0.35527136788E-14  0.00000000000E+00 -0.15010667927E+03  0.19533925552E+03  0.12500163832E+03 0.  0.
    9000006    2    3    3    0    0  0.12213459061E+02  0.85247485447E+01 -0.60706114084E+02  0.86643981852E+02  0.60000894860E+02 0.  0.
    9000007    2    3    3    0    0 -0.12213459061E+02 -0.85247485447E+01 -0.89400565188E+02  0.10869527366E+03  0.60003012765E+02 0.  0.
          5    1    4    4  501    0 -0.22173969257E+02  0.12563210404E+02 -0.18447212266E+02  0.31810514121E+02  0.47000000000E+01 0.  1.
         -5    1    4    4    0  501  0.34387428318E+02 -0.40384618594E+01 -0.42258901818E+02  0.54833467730E+02  0.47000000000E+01 0.  1.
         12    1    5    5    0    0  0.14788782358E+02  0.17040198305E+02 -0.20911927172E+02  0.30763373351E+02  0.00000000000E+00 0. -1.
        -12    1    5    5    0    0 -0.27002241419E+02 -0.25564946849E+02 -0.68488638016E+02  0.77931900312E+02  0.00000000000E+00 0. -1.
<mgrwt>
<rscale>  0 0.12500164E+03</rscale>
<asrwt>0</asrwt>
<pdfrwt beam="1">  1       21 0.34794289E-02 0.12500164E+03</pdfrwt>
<pdfrwt beam="2">  1       21 0.26572765E-01 0.12500164E+03</pdfrwt>
<totfact> 0.65431195E+06</totfact>
</mgrwt>
</event>
<event>
 9    1  0.4541185E-002  0.1250024E+03  0.7818608E-02  0.1235065E+00
         21   -1    0    0  503  502  0.00000000000E+00  0.00000000000E+00  0.15522760408E+04  0.15522760408E+04  0.00000000000E+00 0. -1.
         21   -1    0    0  502  503 -0.00000000000E+00 -0.00000000000E+00 -0.25165638057E+01  0.25165638057E+01  0.00000000000E+00 0. -1.
         25    2    1    2    0    0  0.00000000000E+00 -0.35527136788E-14  0.15497594770E+04  0.15547926046E+04  0.12500242719E+03 0.  0.
    9000006    2    3    3    0    0  0.91476371957E+01 -0.60253019455E+01  0.94448456010E+03  0.94645177688E+03  0.59999151299E+02 0.  0.
    9000007    2    3    3    0    0 -0.91476371957E+01  0.60253019455E+01  0.60527491692E+03  0.60834082775E+03  0.60007117333E+02 0.  0.
          5    1    4    4  501    0  0.12208773038E+02  0.12048215783E+02  0.84478269957E+03  0.84496988889E+03  0.47000000000E+01 0. -1.
         -5    1    4    4    0  501 -0.30611358423E+01 -0.18073517728E+02  0.99701860530E+02  0.10148188798E+03  0.47000000000E+01 0. -1.
         12    1    5    5    0    0 -0.22362808164E+01  0.33037657025E+02  0.33154633482E+03  0.33319582811E+03  0.00000000000E+00 0.  1.
        -12    1    5    5    0    0 -0.69113563792E+01 -0.27012355079E+02  0.27372858209E+03  0.27514499964E+03  0.00000000000E+00 0.  1.
<mgrwt>
<rscale>  0 0.12500243E+03</rscale>
<asrwt>0</asrwt>
<pdfrwt beam="1">  1       21 0.23881093E+00 0.12500243E+03</pdfrwt>
<pdfrwt beam="2">  1       21 0.38716490E-03 0.12500243E+03</pdfrwt>
<totfact> 0.13198878E+06</totfact>
</mgrwt>
</event>
<event>
 9    1  0.4541185E-002  0.1250019E+03  0.7818608E-02  0.1235066E+00
         21   -1    0    0  503  502  0.00000000000E+00  0.00000000000E+00  0.43180472338E+03  0.43180472338E+03  0.00000000000E+00 0.  1.
         21   -1    0    0  502  503 -0.00000000000E+00 -0.00000000000E+00 -0.90466104022E+01  0.90466104022E+01  0.00000000000E+00 0.  1.
         25    2    1    2    0    0 -0.44408920985E-15  0.00000000000E+00  0.42275811298E+03  0.44085133379E+03  0.12500190562E+03 0.  0.
    9000006    2    3    3    0    0 -0.31343806769E+00 -0.16123807061E+02  0.18733264948E+03  0.19736584570E+03  0.59997334044E+02 0.  0.
    9000007    2    3    3    0    0  0.31343806769E+00  0.16123807061E+02  0.23542546351E+03  0.24348548808E+03  0.59999655359E+02 0.  0.
          5    1    4    4  501    0  0.14578621300E+02  0.14150340916E+02  0.12114475919E+03  0.12292644560E+03  0.47000000000E+01 0.  1.
         -5    1    4    4    0  501 -0.14892059368E+02 -0.30274147977E+02  0.66187890283E+02  0.74439400105E+02  0.47000000000E+01 0.  1.
         12    1    5    5    0    0 -0.29001649611E+01  0.14560148005E+01 -0.30999944639E+01  0.44878615818E+01  0.00000000000E+00 0.  1.
        -12    1    5    5    0    0  0.32136030288E+01  0.14667792261E+02  0.23852545797E+03  0.23899762650E+03  0.00000000000E+00 0.  1.
<mgrwt>
<rscale>  0 0.12500191E+03</rscale>
<asrwt>0</asrwt>
<pdfrwt beam="1">  1       21 0.66431480E-01 0.12500191E+03</pdfrwt>
<pdfrwt beam="2">  1       21 0.13917865E-02 0.12500191E+03</pdfrwt>
<totfact> 0.45442565E+06</totfact>
</mgrwt>
</event>
<event>
 9    1  0.4541185E-002  0.1249979E+03  0.7818608E-02  0.1235073E+00
         21   -1    0    0  503  502  0.00000000000E+00  0.00000000000E+00  0.19249923631E+02  0.19249923631E+02  0.00000000000E+00 0. -1.
         21   -1    0    0  502  503 -0.00000000000E+00 -0.00000000000E+00 -0.20291611985E+03  0.20291611985E+03  0.00000000000E+00 0. -1.
         25    2    1    2    0    0  0.35527136788E-14  0.35527136788E-14 -0.18366619622E+03  0.22216604348E+03  0.12499791695E+03 0.  0.
    9000006    2    3    3    0    0  0.10537745415E+02 -0.13618582426E+02 -0.97348630212E+02  0.11564273804E+03  0.59999809922E+02 0.  0.
    9000007    2    3    3    0    0 -0.10537745415E+02  0.13618582426E+02 -0.86317566004E+02  0.10652330544E+03  0.59999854463E+02 0.  0.
          5    1    4    4  501    0 -0.19486972066E+02 -0.19746242154E+02 -0.28076233125E+02  0.39749478311E+02  0.47000000000E+01 0.  1.
         -5    1    4    4    0  501  0.30024717481E+02  0.61276597286E+01 -0.69272397087E+02  0.75893259726E+02  0.47000000000E+01 0.  1.
         12    1    5    5    0    0 -0.14780869322E+02  0.20616827994E+02 -0.63666176101E+01  0.26154569663E+02  0.00000000000E+00 0. -1.
        -12    1    5    5    0    0  0.42431239068E+01 -0.69982455688E+01 -0.79950948394E+02  0.80368735778E+02  0.00000000000E+00 0. -1.
<mgrwt>
<rscale>  0 0.12499792E+03</rscale>
<asrwt>0</asrwt>
<pdfrwt beam="1">  1       21 0.29615266E-02 0.12499792E+03</pdfrwt>
<pdfrwt beam="2">  1       21 0.31217866E-01 0.12499792E+03</pdfrwt>
<totfact> 0.62605115E+06</totfact>
</mgrwt>
</event>
<event>
 9    1  0.4541185E-002  0.1250012E+03  0.7818608E-02  0.1235067E+00
         21   -1    0    0  503  502  0.00000000000E+00  0.00000000000E+00  0.88153381291E+02  0.88153381291E+02  0.00000000000E+00 0. -1.
         21   -1    0    0  502  503 -0.00000000000E+00 -0.00000000000E+00 -0.44312819484E+02  0.44312819484E+02  0.00000000000E+00 0. -1.
         25    2    1    2    0    0  0.00000000000E+00  0.00000000000E+00  0.43840561807E+02  0.13246620077E+03  0.12500119795E+03 0.  0.
    9000006    2    3    3    0    0 -0.92103227545E+01  0.64708212545E+01  0.77209070628E+01  0.61533586056E+02  0.60000568615E+02 0.  0.
    9000007    2    3    3    0    0  0.92103227545E+01 -0.64708212545E+01  0.36119654744E+02  0.70932614718E+02  0.60000873319E+02 0.  0.
          5    1    4    4  501    0 -0.79790970470E+01  0.26468553219E+02  0.22701494367E+02  0.36079054113E+02  0.47000000000E+01 0.  1.
         -5    1    4    4    0  501 -0.12312257076E+01 -0.19997731965E+02 -0.14980587304E+02  0.25454531943E+02  0.47000000000E+01 0.  1.
         12    1    5    5    0    0  0.17841770616E+02  0.23546902177E+02  0.20896043512E+02  0.36186047246E+02  0.00000000000E+00 0.  1.
        -12    1    5    5    0    0 -0.86314478611E+01 -0.30017723431E+02  0.15223611233E+02  0.34746567473E+02  0.00000000000E+00 0.  1.
<mgrwt>
<rscale>  0 0.12500120E+03</rscale>
<asrwt>0</asrwt>
<pdfrwt beam="1">  1       21 0.13562059E-01 0.12500120E+03</pdfrwt>
<pdfrwt beam="2">  1       21 0.68173568E-02 0.12500120E+03</pdfrwt>
<totfact> 0.73031531E+06</totfact>
</mgrwt>
</event>
<event>
 9    1  0.4541185E-002  0.1250049E+03  0.7818608E-02  0.1235062E+00
         21   -1    0    0  503  502  0.00000000000E+00  0.00000000000E+00  0.64406003462E+03  0.64406003462E+03  0.00000000000E+00 0.  1.
         21   -1    0    0  502  503 -0.00000000000E+00 -0.00000000000E+00 -0.60655178288E+01  0.60655178288E+01  0.00000000000E+00 0.  1.
         25    2    1    2    0    0  0.00000000000E+00 -0.17763568394E-14  0.63799451679E+03  0.65012555245E+03  0.12500492187E+03 0.  0.
    9000006    2    3    3    0    0  0.14201093406E+02 -0.20951160964E+01  0.26685771504E+03  0.27389614531E+03  0.59999981447E+02 0.  0.
    9000007    2    3    3    0    0 -0.14201093406E+02  0.20951160964E+01  0.37113680175E+03  0.37622940714E+03  0.59999838474E+02 0.  0.
          5    1    4    4  501    0  0.33228803125E+02  0.10695599161E+02  0.11586967281E+03  0.12110499691E+03  0.47000000000E+01 0. -1.
         -5    1    4    4    0  501 -0.19027709720E+02 -0.12790715258E+02  0.15098804222E+03  0.15279114840E+03  0.47000000000E+01 0. -1.
         12    1    5    5    0    0  0.46859751632E+01  0.27796886274E+02  0.21731461965E+03  0.21913527594E+03  0.00000000000E+00 0.  1.
        -12    1    5    5    0    0 -0.18887068569E+02 -0.25701770178E+02  0.15382218210E+03  0.15709413120E+03  0.00000000000E+00 0.  1.
<mgrwt>
<rscale>  0 0.12500492E+03</rscale>
<asrwt>0</asrwt>
<pdfrwt beam="1">  1       21 0.99086105E-01 0.12500492E+03</pdfrwt>
<pdfrwt beam="2">  1       21 0.93315710E-03 0.12500492E+03</pdfrwt>
<totfact> 0.34915062E+06</totfact>
</mgrwt>
</event>
<event>
 9    1  0.4541185E-002  0.1249944E+03  0.7818608E-02  0.1235078E+00
         21   -1    0    0  503  502  0.00000000000E+00  0.00000000000E+00  0.25969145367E+02  0.25969145367E+02  0.00000000000E+00 0.  1.
         21   -1    0    0  502  503 -0.00000000000E+00 -0.00000000000E+00 -0.15040536304E+03  0.15040536304E+03  0.00000000000E+00 0.  1.
         25    2    1    2    0    0  0.00000000000E+00  0.72164496601E-15 -0.12443621767E+03  0.17637450840E+03  0.12499437966E+03 0.  0.
    9000006    2    3    3    0    0  0.17026245606E+02  0.14156669678E+00 -0.67939602550E+02  0.92221217257E+02  0.59992084787E+02 0.  0.
    9000007    2    3    3    0    0 -0.17026245606E+02 -0.14156669678E+00 -0.56496615121E+02  0.84153291148E+02  0.59999965085E+02 0.  0.
          5    1    4    4  501    0 -0.21571667335E+02  0.37587348134E+00 -0.15675947893E+02  0.27079576341E+02  0.47000000000E+01 0. -1.
         -5    1    4    4    0  501  0.38597912941E+02 -0.23430678456E+00 -0.52263654657E+02  0.65141640916E+02  0.47000000000E+01 0. -1.
         12    1    5    5    0    0 -0.18451430414E+02  0.98902221952E+01  0.52480808376E+01  0.21582727628E+02  0.00000000000E+00 0. -1.
        -12    1    5    5    0    0  0.14251848075E+01 -0.10031788892E+02 -0.61744695959E+02  0.62570563520E+02  0.00000000000E+00 0. -1.
<mgrwt>
<rscale>  0 0.12499438E+03</rscale>
<asrwt>0</asrwt>
<pdfrwt beam="1">  1       21 0.39952531E-02 0.12499438E+03</pdfrwt>
<pdfrwt beam="2">  1       21 0.23139287E-01 0.12499438E+03</pdfrwt>
<totfact> 0.67579531E+06</totfact>
</mgrwt>
</event>
<event>
 9    1  0.4541185E-002  0.1250056E+03  0.7818608E-02  0.1235060E+00
         21   -1    0    0  503  502  0.00000000000E+00  0.00000000000E+00  0.19418509108E+03  0.19418509108E+03  0.00000000000E+00 0. -1.
         21   -1    0    0  502  503 -0.00000000000E+00 -0.00000000000E+00 -0.20117925622E+02  0.20117925622E+02  0.00000000000E+00 0. -1.
         25    2    1    2    0    0  0.00000000000E+00  0.00000000000E+00  0.17406716546E+03  0.21430301671E+03  0.12500561938E+03 0.  0.
    9000006    2    3    3    0    0 -0.12648633457E+02 -0.91140972473E+01  0.73384896098E+02  0.96065043684E+02  0.60000791209E+02 0.  0.
    9000007    2    3    3    0    0  0.12648633457E+02  0.91140972473E+01  0.10068226936E+03  0.11823797302E+03  0.60002034993E+02 0.  0.
          5    1    4    4  501    0 -0.21170499033E+01  0.31550586204E+00  0.79712669464E+02  0.79879791671E+02  0.47000000000E+01 0.  1.
         -5    1    4    4    0  501 -0.10531583554E+02 -0.94296031093E+01 -0.63277733660E+01  0.16185252013E+02  0.47000000000E+01 0.  1.
         12    1    5    5    0    0  0.35036519115E+01 -0.29670105231E+01  0.10283179719E+03  0.10293423746E+03  0.00000000000E+00 0.  1.
        -12    1    5    5    0    0  0.91449815459E+01  0.12081107770E+02 -0.21495278225E+01  0.15303735567E+02  0.00000000000E+00 0.  1.
<mgrwt>
<rscale>  0 0.12500562E+03</rscale>
<asrwt>0</asrwt>
<pdfrwt beam="1">  1       21 0.29874628E-01 0.12500562E+03</pdfrwt>
<pdfrwt beam="2">  1       21 0.30950656E-02 0.12500562E+03</pdfrwt>
<totfact> 0.63400625E+06</totfact>
</mgrwt>
</event>
<event>
 9    1  0.4541185E-002  0.1249979E+03  0.7818608E-02  0.1235072E+00
         21   -1    0    0  503  502  0.00000000000E+00  0.00000000000E+00  0.14997442411E+02  0.14997442411E+02  0.00000000000E+00 0.  1.
         21   -1    0    0  502  503 -0.00000000000E+00 -0.00000000000E+00 -0.26045250031E+03  0.26045250031E+03  0.00000000000E+00 0.  1.
         25    2    1    2    0    0  0.00000000000E+00 -0.17763568394E-14 -0.24545505790E+03  0.27544994272E+03  0.12499794197E+03 0.  0.
    9000006    2    3    3    0    0  0.22097677727E+01 -0.39153899898E+01 -0.85470236226E+02  0.10452473489E+03  0.60000379753E+02 0.  0.
    9000007    2    3    3    0    0 -0.22097677727E+01  0.39153899898E+01 -0.15998482167E+03  0.17092520783E+03  0.60000584616E+02 0.  0.
          5    1    4    4  501    0  0.20521900564E+02 -0.87736410163E+01 -0.81465665689E+02  0.84598285240E+02  0.47000000000E+01 0.  1.
         -5    1    4    4    0  501 -0.18312132791E+02  0.48582510265E+01 -0.40045705375E+01  0.19926449648E+02  0.47000000000E+01 0.  1.
         12    1    5    5    0    0 -0.29735045312E+02  0.93369188035E+00 -0.10805968311E+03  0.11208005984E+03  0.00000000000E+00 0.  1.
        -12    1    5    5    0    0  0.27525277539E+02  0.29816981095E+01 -0.51925138563E+02  0.58845147991E+02  0.00000000000E+00 0.  1.
<mgrwt>
<rscale>  0 0.12499794E+03</rscale>
<asrwt>0</asrwt>
<pdfrwt beam="1">  1       21 0.23072990E-02 0.12499794E+03</pdfrwt>
<pdfrwt beam="2">  1       21 0.40069613E-01 0.12499794E+03</pdfrwt>
<totfact> 0.57563130E+06</totfact>
</mgrwt>
</event>
<event>
 9    1  0.4541185E-002  0.1249982E+03  0.7818608E-02  0.1235072E+00
         21   -1    0    0  503  502  0.00000000000E+00  0.00000000000E+00  0.15639544209E+02  0.15639544209E+02  0.00000000000E+00 0.  1.
         21   -1    0    0  502  503 -0.00000000000E+00 -0.00000000000E+00 -0.24976016627E+03  0.24976016627E+03  0.00000000000E+00 0.  1.
         25    2    1    2    0    0 -0.17763568394E-14 -0.17763568394E-14 -0.23412062206E+03  0.26539971048E+03  0.12499816258E+03 0.  0.
    9000006    2    3    3    0    0 -0.13329858741E+02 -0.98236407917E+01 -0.12907317879E+03  0.14329691947E+03  0.59999438270E+02 0.  0.
    9000007    2    3    3    0    0  0.13329858741E+02  0.98236407917E+01 -0.10504744327E+03  0.12210279101E+03  0.59999476525E+02 0.  0.
          5    1    4    4  501    0 -0.12313207077E+02 -0.44434308972E+01 -0.13389677093E+03  0.13461721439E+03  0.47000000000E+01 0.  1.
         -5    1    4    4    0  501 -0.10166516644E+01 -0.53802098945E+01  0.48235921326E+01  0.86797050743E+01  0.47000000000E+01 0.  1.
         12    1    5    5    0    0  0.31843636508E+01  0.18334785026E+02 -0.25848003316E+01  0.18787913843E+02  0.00000000000E+00 0.  1.
        -12    1    5    5    0    0  0.10145495091E+02 -0.85111442347E+01 -0.10246264294E+03  0.10331487717E+03  0.00000000000E+00 0.  1.
<mgrwt>
<rscale>  0 0.12499816E+03</rscale>
<asrwt>0</asrwt>
<pdfrwt beam="1">  1       21 0.24060841E-02 0.12499816E+03</pdfrwt>
<pdfrwt beam="2">  1       21 0.38424635E-01 0.12499816E+03</pdfrwt>
<totfact> 0.58460575E+06</totfact>
</mgrwt>
</event>
<event>
 9    1  0.4541185E-002  0.1249996E+03  0.7818608E-02  0.1235070E+00
         21   -1    0    0  503  502  0.00000000000E+00  0.00000000000E+00  0.35374838931E+03  0.35374838931E+03  0.00000000000E+00 0. -1.
         21   -1    0    0  502  503 -0.00000000000E+00 -0.00000000000E+00 -0.11042387905E+02  0.11042387905E+02  0.00000000000E+00 0. -1.
         25    2    1    2    0    0  0.00000000000E+00  0.00000000000E+00  0.34270600140E+03  0.36479077721E+03  0.12499963097E+03 0.  0.
    9000006    2    3    3    0    0  0.29964067148E+01  0.16987538676E+02  0.17990132961E+03  0.19042576895E+03  0.59999417999E+02 0.  0.
    9000007    2    3    3    0    0 -0.29964067148E+01 -0.16987538676E+02  0.16280467179E+03  0.17436500826E+03  0.60002000187E+02 0.  0.
          5    1    4    4  501    0  0.98281332704E+01  0.24351240754E+02  0.17695029653E+03  0.17894991638E+03  0.47000000000E+01 0. -1.
         -5    1    4    4    0  501 -0.68317265556E+01 -0.73637020777E+01  0.29510330849E+01  0.11475852573E+02  0.47000000000E+01 0. -1.
         12    1    5    5    0    0 -0.27059990879E+01 -0.34217832325E+02  0.52518056716E+02  0.62740168642E+02  0.00000000000E+00 0.  1.
        -12    1    5    5    0    0 -0.29040762689E+00  0.17230293648E+02  0.11028661507E+03  0.11162483962E+03  0.00000000000E+00 0.  1.
<mgrwt>
<rscale>  0 0.12499963E+03</rscale>
<asrwt>0</asrwt>
<pdfrwt beam="1">  1       21 0.54422820E-01 0.12499963E+03</pdfrwt>
<pdfrwt beam="2">  1       21 0.16988292E-02 0.12499963E+03</pdfrwt>
<totfact> 0.50464769E+06</totfact>
</mgrwt>
</event>
<event>
 9    1  0.4541185E-002  0.1249948E+03  0.7818608E-02  0.1235077E+00
         21   -1    0    0  503  502  0.00000000000E+00  0.00000000000E+00  0.64564901557E+01  0.64564901557E+01  0.00000000000E+00 0. -1.
         21   -1    0    0  502  503 -0.00000000000E+00 -0.00000000000E+00 -0.60496056616E+03  0.60496056616E+03  0.00000000000E+00 0. -1.
         25    2    1    2    0    0 -0.17763568394E-14  0.35527136788E-14 -0.59850407600E+03  0.61141705632E+03  0.12499475093E+03 0.  0.
    9000006    2    3    3    0    0  0.98313084748E+01  0.10570341049E+02 -0.25093546948E+03  0.25841235293E+03  0.59999563080E+02 0.  0.
    9000007    2    3    3    0    0 -0.98313084748E+01 -0.10570341049E+02 -0.34756860653E+03  0.35300470338E+03  0.59999980264E+02 0.  0.
          5    1    4    4  501    0 -0.36686912195E+01 -0.16860787734E+02 -0.27225222192E+02  0.32573734537E+02  0.47000000000E+01 0. -1.
         -5    1    4    4    0  501  0.13499999694E+02  0.27431128783E+02 -0.22371024729E+03  0.22583861839E+03  0.47000000000E+01 0. -1.
         12    1    5    5    0    0 -0.11056000806E+02  0.23967578496E+02 -0.12374115747E+03  0.12652491464E+03  0.00000000000E+00 0.  1.
        -12    1    5    5    0    0  0.12246923311E+01 -0.34537919545E+02 -0.22382744906E+03  0.22647978874E+03  0.00000000000E+00 0.  1.
<mgrwt>
<rscale>  0 0.12499475E+03</rscale>
<asrwt>0</asrwt>
<pdfrwt beam="1">  1       21 0.99330582E-03 0.12499475E+03</pdfrwt>
<pdfrwt beam="2">  1       21 0.93070890E-01 0.12499475E+03</pdfrwt>
<totfact> 0.36586106E+06</totfact>
</mgrwt>
</event>
<event>
 9    1  0.4541185E-002  0.1250057E+03  0.7818608E-02  0.1235060E+00
         21   -1    0    0  503  502  0.00000000000E+00  0.00000000000E+00  0.28599370840E+02  0.28599370840E+02  0.00000000000E+00 0. -1.
         21   -1    0    0  502  503 -0.00000000000E+00 -0.00000000000E+00 -0.13659762314E+03  0.13659762314E+03  0.00000000000E+00 0. -1.
         25    2    1    2    0    0 -0.71054273576E-14 -0.35527136788E-14 -0.10799825230E+03  0.16519699398E+03  0.12500569715E+03 0.  0.
    9000006    2    3    3    0    0  0.15000068511E+02  0.90177792417E+01 -0.53236564910E+02  0.82100364116E+02  0.60000129557E+02 0.  0.
    9000007    2    3    3    0    0 -0.15000068511E+02 -0.90177792417E+01 -0.54761687387E+02  0.83096629860E+02  0.59999042416E+02 0.  0.
          5    1    4    4  501    0  0.27984092484E+02  0.39973443670E+01 -0.19184805392E+01  0.28720354484E+02  0.47000000000E+01 0. -1.
         -5    1    4    4    0  501 -0.12984023973E+02  0.50204348747E+01 -0.51318084370E+02  0.53380009632E+02  0.47000000000E+01 0. -1.
         12    1    5    5    0    0  0.21385348564E+02 -0.93073669635E+01 -0.33917607389E+02  0.41162656668E+02  0.00000000000E+00 0.  1.
        -12    1    5    5    0    0 -0.36385417074E+02  0.28958772174E+00 -0.20844079999E+02  0.41933973193E+02  0.00000000000E+00 0.  1.
<mgrwt>
<rscale>  0 0.12500570E+03</rscale>
<asrwt>0</asrwt>
<pdfrwt beam="1">  1       21 0.43999032E-02 0.12500570E+03</pdfrwt>
<pdfrwt beam="2">  1       21 0.21015019E-01 0.12500570E+03</pdfrwt>
<totfact> 0.68880017E+06</totfact>
</mgrwt>
</event>
<event>
 9    1  0.4541185E-002  0.1249986E+03  0.7818608E-02  0.1235071E+00
         21   -1    0    0  503  502  0.00000000000E+00  0.00000000000E+00  0.27723131309E+02  0.27723131309E+02  0.00000000000E+00 0. -1.
         21   -1    0    0  502  503 -0.00000000000E+00 -0.00000000000E+00 -0.14089907171E+03  0.14089907171E+03  0.00000000000E+00 0. -1.
         25    2    1    2    0    0  0.00000000000E+00 -0.88817841970E-15 -0.11317594040E+03  0.16862220302E+03  0.12499861545E+03 0.  0.
    9000006    2    3    3    0    0 -0.79026532125E+01  0.33299554048E+01 -0.36014039539E+02  0.70501917872E+02  0.59999740407E+02 0.  0.
    9000007    2    3    3    0    0  0.79026532125E+01 -0.33299554048E+01 -0.77161900862E+02  0.98120285147E+02  0.60000757344E+02 0.  0.
          5    1    4    4  501    0  0.22028529645E+02 -0.45381750851E+01 -0.31327065333E+02  0.38850047282E+02  0.47000000000E+01 0.  1.
         -5    1    4    4    0  501 -0.29931182858E+02  0.78681304899E+01 -0.46869742064E+01  0.31651870591E+02  0.47000000000E+01 0.  1.
         12    1    5    5    0    0 -0.15687180036E+02  0.12661367366E+02 -0.63292518902E+02  0.66425452878E+02  0.00000000000E+00 0. -1.
        -12    1    5    5    0    0  0.23589833248E+02 -0.15991322771E+02 -0.13869381960E+02  0.31694832269E+02  0.00000000000E+00 0. -1.
<mgrwt>
<rscale>  0 0.12499862E+03</rscale>
<asrwt>0</asrwt>
<pdfrwt beam="1">  1       21 0.42650971E-02 0.12499862E+03</pdfrwt>
<pdfrwt beam="2">  1       21 0.21676780E-01 0.12499862E+03</pdfrwt>
<totfact> 0.68483410E+06</totfact>
</mgrwt>
</event>
<event>
 9    1  0.4541185E-002  0.1249981E+03  0.7818608E-02  0.1235072E+00
         21   -1    0    0  503  502  0.00000000000E+00  0.00000000000E+00  0.13364156409E+02  0.13364156409E+02  0.00000000000E+00 0. -1.
         21   -1    0    0  502  503 -0.00000000000E+00 -0.00000000000E+00 -0.29228417565E+03  0.29228417565E+03  0.00000000000E+00 0. -1.
         25    2    1    2    0    0  0.17763568394E-14  0.00000000000E+00 -0.27892001924E+03  0.30564833206E+03  0.12499810301E+03 0.  0.
    9000006    2    3    3    0    0 -0.10692415032E+02 -0.13847698216E+02 -0.13937384851E+03  0.15274543358E+03  0.60000094547E+02 0.  0.
    9000007    2    3    3    0    0  0.10692415032E+02  0.13847698216E+02 -0.13954617073E+03  0.15290289848E+03  0.60000634269E+02 0.  0.
          5    1    4    4  501    0  0.22843050116E+02 -0.10589881549E+02 -0.38089410335E+02  0.45900367204E+02  0.47000000000E+01 0.  1.
         -5    1    4    4    0  501 -0.33535465149E+02 -0.32578166673E+01 -0.10128443818E+03  0.10684506638E+03  0.47000000000E+01 0.  1.
         12    1    5    5    0    0  0.11358459124E+02 -0.22920308909E+02 -0.62424327054E+02  0.67462224707E+02  0.00000000000E+00 0.  1.
        -12    1    5    5    0    0 -0.66604409214E+00  0.36768007126E+02 -0.77121843677E+02  0.85440673773E+02  0.00000000000E+00 0.  1.
<mgrwt>
<rscale>  0 0.12499810E+03</rscale>
<asrwt>0</asrwt>
<pdfrwt beam="1">  1       21 0.20560241E-02 0.12499810E+03</pdfrwt>
<pdfrwt beam="2">  1       21 0.44966795E-01 0.12499810E+03</pdfrwt>
<totfact> 0.54992638E+06</totfact>
</mgrwt>
</event>
<event>
 9    1  0.4541185E-002  0.1250055E+03  0.7818608E-02  0.1235061E+00
         21   -1    0    0  503  502  0.00000000000E+00  0.00000000000E+00  0.19773529761E+02  0.19773529761E+02  0.00000000000E+00 0.  1.
         21   -1    0    0  502  503 -0.00000000000E+00 -0.00000000000E+00 -0.19756693328E+03  0.19756693328E+03  0.00000000000E+00 0.  1.
         25    2    1    2    0    0  0.26645352591E-14  0.00000000000E+00 -0.17779340352E+03  0.21734046304E+03  0.12500553004E+03 0.  0.
    9000006    2    3    3    0    0  0.64196149072E+01  0.64253144318E+01 -0.62866478802E+02  0.87376356902E+02  0.59999478892E+02 0.  0.
    9000007    2    3    3    0    0 -0.64196149072E+01 -0.64253144318E+01 -0.11492692472E+03  0.12996410614E+03  0.59999789487E+02 0.  0.
          5    1    4    4  501    0 -0.24473627980E+01 -0.18926888722E+02 -0.89878024549E+00  0.19675225724E+02  0.47000000000E+01 0.  1.
         -5    1    4    4    0  501  0.88669777052E+01  0.25352203153E+02 -0.61967698557E+02  0.67701131178E+02  0.47000000000E+01 0.  1.
         12    1    5    5    0    0 -0.19532588004E+02 -0.21370927937E+02 -0.10251583792E+03  0.10652575078E+03  0.00000000000E+00 0.  1.
        -12    1    5    5    0    0  0.13112973097E+02  0.14945613505E+02 -0.12411086801E+02  0.23438355362E+02  0.00000000000E+00 0.  1.
<mgrwt>
<rscale>  0 0.12500553E+03</rscale>
<asrwt>0</asrwt>
<pdfrwt beam="1">  1       21 0.30420816E-02 0.12500553E+03</pdfrwt>
<pdfrwt beam="2">  1       21 0.30394912E-01 0.12500553E+03</pdfrwt>
<totfact> 0.63086595E+06</totfact>
</mgrwt>
</event>
<event>
 9    1  0.4541185E-002  0.1249989E+03  0.7818608E-02  0.1235071E+00
         21   -1    0    0  503  502  0.00000000000E+00  0.00000000000E+00  0.27716807843E+02  0.27716807843E+02  0.00000000000E+00 0.  1.
         21   -1    0    0  502  503 -0.00000000000E+00 -0.00000000000E+00 -0.14093189497E+03  0.14093189497E+03  0.00000000000E+00 0.  1.
         25    2    1    2    0    0 -0.35527136788E-14  0.00000000000E+00 -0.11321508713E+03  0.16864870282E+03  0.12499891603E+03 0.  0.
    9000006    2    3    3    0    0 -0.16270424329E+02  0.50023640244E+01 -0.62084703021E+02  0.88000978632E+02  0.59999262807E+02 0.  0.
    9000007    2    3    3    0    0  0.16270424329E+02 -0.50023640244E+01 -0.51130384111E+02  0.80647724185E+02  0.59999907360E+02 0.  0.
          5    1    4    4  501    0 -0.21575904132E+02  0.20411614309E+02 -0.77114493002E+01  0.31043680325E+02  0.47000000000E+01 0. -1.
         -5    1    4    4    0  501  0.53054798025E+01 -0.15409250285E+02 -0.54373253721E+02  0.56957298307E+02  0.47000000000E+01 0. -1.
         12    1    5    5    0    0 -0.30738431731E+01 -0.30336524252E+02 -0.25208039308E+02  0.39562589164E+02  0.00000000000E+00 0.  1.
        -12    1    5    5    0    0  0.19344267502E+02  0.25334160228E+02 -0.25922344803E+02  0.41085135021E+02  0.00000000000E+00 0.  1.
<mgrwt>
<rscale>  0 0.12499892E+03</rscale>
<asrwt>0</asrwt>
<pdfrwt beam="1">  1       21 0.42641243E-02 0.12499892E+03</pdfrwt>
<pdfrwt beam="2">  1       21 0.21681830E-01 0.12499892E+03</pdfrwt>
<totfact> 0.68479741E+06</totfact>
</mgrwt>
</event>
<event>
 9    1  0.4541185E-002  0.1250006E+03  0.7818608E-02  0.1235068E+00
         21   -1    0    0  503  502  0.00000000000E+00  0.00000000000E+00  0.22002023101E+01  0.22002023101E+01  0.00000000000E+00 0. -1.
         21   -1    0    0  502  503 -0.00000000000E+00 -0.00000000000E+00 -0.17754232016E+04  0.17754232016E+04  0.00000000000E+00 0. -1.
         25    2    1    2    0    0  0.00000000000E+00  0.35527136788E-14 -0.17732229993E+04  0.17776234039E+04  0.12500064367E+03 0.  0.
    9000006    2    3    3    0    0 -0.13791794159E+02 -0.98881418252E+01 -0.94735740112E+03  0.94940728941E+03  0.60001389928E+02 0.  0.
    9000007    2    3    3    0    0  0.13791794159E+02  0.98881418252E+01 -0.82586559818E+03  0.82821611451E+03  0.59999642849E+02 0.  0.
          5    1    4    4  501    0  0.17358567837E+02 -0.21804938053E+02 -0.48689539930E+03  0.48771507570E+03  0.47000000000E+01 0.  1.
         -5    1    4    4    0  501 -0.31150361996E+02  0.11916796228E+02 -0.46046200182E+03  0.46169221372E+03  0.47000000000E+01 0.  1.
         12    1    5    5    0    0  0.27019631536E+02  0.16787447932E+02 -0.76068957246E+03  0.76135438828E+03  0.00000000000E+00 0. -1.
        -12    1    5    5    0    0 -0.13227837378E+02 -0.68993061068E+01 -0.65176025715E+02  0.66861726229E+02  0.00000000000E+00 0. -1.
<mgrwt>
<rscale>  0 0.12500064E+03</rscale>
<asrwt>0</asrwt>
<pdfrwt beam="1">  1       21 0.33849268E-03 0.12500064E+03</pdfrwt>
<pdfrwt beam="2">  1       21 0.27314202E+00 0.12500064E+03</pdfrwt>
<totfact> 0.10329671E+06</totfact>
</mgrwt>
</event>
<event>
 9    1  0.4541185E-002  0.1250009E+03  0.7818608E-02  0.1235068E+00
         21   -1    0    0  503  502  0.00000000000E+00  0.00000000000E+00  0.11924399955E+04  0.11924399955E+04  0.00000000000E+00 0. -1.
         21   -1    0    0  502  503 -0.00000000000E+00 -0.00000000000E+00 -0.32758911571E+01  0.32758911571E+01  0.00000000000E+00 0. -1.
         25    2    1    2    0    0 -0.17763568394E-14  0.00000000000E+00  0.11891641043E+04  0.11957158866E+04  0.12500085818E+03 0.  0.
    9000006    2    3    3    0    0  0.44123432241E+01  0.42535239944E+01  0.43777530035E+03  0.44191036331E+03  0.59999953013E+02 0.  0.
    9000007    2    3    3    0    0 -0.44123432241E+01 -0.42535239944E+01  0.75138880396E+03  0.75380552331E+03  0.60000591911E+02 0.  0.
          5    1    4    4  501    0  0.16367510279E+02  0.28308411284E+02  0.23657423246E+03  0.23886966950E+03  0.47000000000E+01 0.  1.
         -5    1    4    4    0  501 -0.11955167055E+02 -0.24054887290E+02  0.20120106789E+03  0.20304069381E+03  0.47000000000E+01 0.  1.
         12    1    5    5    0    0 -0.10935270573E+01  0.23451472322E+02  0.54906498515E+03  0.54956667046E+03  0.00000000000E+00 0. -1.
        -12    1    5    5    0    0 -0.33188161668E+01 -0.27704996317E+02  0.20232381880E+03  0.20423885286E+03  0.00000000000E+00 0. -1.
<mgrwt>
<rscale>  0 0.12500086E+03</rscale>
<asrwt>0</asrwt>
<pdfrwt beam="1">  1       21 0.18345196E+00 0.12500086E+03</pdfrwt>
<pdfrwt beam="2">  1       21 0.50398420E-03 0.12500086E+03</pdfrwt>
<totfact> 0.19228585E+06</totfact>
</mgrwt>
</event>
<event>
 9    1  0.4541185E-002  0.1250017E+03  0.7818608E-02  0.1235067E+00
         21   -1    0    0  503  502  0.00000000000E+00  0.00000000000E+00  0.11804369021E+03  0.11804369021E+03  0.00000000000E+00 0. -1.
         21   -1    0    0  502  503 -0.00000000000E+00 -0.00000000000E+00 -0.33092451417E+02  0.33092451417E+02  0.00000000000E+00 0. -1.
         25    2    1    2    0    0 -0.17763568394E-14 -0.17763568394E-14  0.84951238796E+02  0.15113614163E+03  0.12500168132E+03 0.  0.
    9000006    2    3    3    0    0 -0.15356438613E+02  0.56178094150E+01  0.34923958262E+02  0.71322232314E+02  0.59998316410E+02 0.  0.
    9000007    2    3    3    0    0  0.15356438613E+02 -0.56178094150E+01  0.50027280534E+02  0.79813909316E+02  0.60001261096E+02 0.  0.
          5    1    4    4  501    0 -0.15953492171E+02  0.12076917340E+02 -0.11945685523E+02  0.23772994080E+02  0.47000000000E+01 0. -1.
         -5    1    4    4    0  501  0.59705355763E+00 -0.64591079255E+01  0.46869643785E+02  0.47549238234E+02  0.47000000000E+01 0. -1.
         12    1    5    5    0    0 -0.81497368940E+01  0.93663804411E+01  0.50429234652E+02  0.51935103750E+02  0.00000000000E+00 0. -1.
        -12    1    5    5    0    0  0.23506175507E+02 -0.14984189856E+02 -0.40195411814E+00  0.27878805565E+02  0.00000000000E+00 0. -1.
<mgrwt>
<rscale>  0 0.12500168E+03</rscale>
<asrwt>0</asrwt>
<pdfrwt beam="1">  1       21 0.18160568E-01 0.12500168E+03</pdfrwt>
<pdfrwt beam="2">  1       21 0.50911464E-02 0.12500168E+03</pdfrwt>
<totfact> 0.70613750E+06</totfact>
</mgrwt>
</event>
<event>
 9    1  0.4541185E-002  0.1250023E+03  0.7818608E-02  0.1235066E+00
         21   -1    0    0  503  502  0.00000000000E+00  0.00000000000E+00  0.15009920737E+02  0.15009920737E+02  0.00000000000E+00 0.  1.
         21   -1    0    0  502  503 -0.00000000000E+00 -0.00000000000E+00 -0.26025410970E+03  0.26025410970E+03  0.00000000000E+00 0.  1.
         25    2    1    2    0    0  0.00000000000E+00 -0.88817841970E-15 -0.24524418896E+03  0.27526403043E+03  0.12500229691E+03 0.  0.
    9000006    2    3    3    0    0 -0.13846765550E+02  0.45514790493E+01 -0.14396670085E+03  0.15664879703E+03  0.59999881512E+02 0.  0.
    9000007    2    3    3    0    0  0.13846765550E+02 -0.45514790493E+01 -0.10127748811E+03  0.11861523340E+03  0.59999959321E+02 0.  0.
          5    1    4    4  501    0 -0.32041050483E+02  0.17852989268E+02 -0.10579511325E+03  0.11207164731E+03  0.47000000000E+01 0.  1.
         -5    1    4    4    0  501  0.18194284933E+02 -0.13301510218E+02 -0.38171587595E+02  0.44577149728E+02  0.47000000000E+01 0.  1.
         12    1    5    5    0    0  0.23262739486E+02 -0.50398117077E+01 -0.83709366998E+01  0.25231475020E+02  0.00000000000E+00 0.  1.
        -12    1    5    5    0    0 -0.94159739358E+01  0.48833265842E+00 -0.92906551411E+02  0.93383758379E+02  0.00000000000E+00 0.  1.
<mgrwt>
<rscale>  0 0.12500230E+03</rscale>
<asrwt>0</asrwt>
<pdfrwt beam="1">  1       21 0.23092185E-02 0.12500230E+03</pdfrwt>
<pdfrwt beam="2">  1       21 0.40039095E-01 0.12500230E+03</pdfrwt>
<totfact> 0.57573255E+06</totfact>
</mgrwt>
</event>
<event>
 9    1  0.4541185E-002  0.1249994E+03  0.7818608E-02  0.1235070E+00
         21   -1    0    0  503  502  0.00000000000E+00  0.00000000000E+00  0.18404574740E+02  0.18404574740E+02  0.00000000000E+00 0.  1.
         21   -1    0    0  502  503 -0.00000000000E+00 -0.00000000000E+00 -0.21224133228E+03  0.21224133228E+03  0.00000000000E+00 0.  1.
         25    2    1    2    0    0 -0.17763568394E-14  0.00000000000E+00 -0.19383675754E+03  0.23064590702E+03  0.12499938340E+03 0.  0.
    9000006    2    3    3    0    0  0.14121117835E+02  0.27388952964E+01 -0.11531627401E+03  0.13078440982E+03  0.59998427349E+02 0.  0.
    9000007    2    3    3    0    0 -0.14121117835E+02 -0.27388952964E+01 -0.78520483532E+02  0.99861497201E+02  0.59999539771E+02 0.  0.
          5    1    4    4  501    0  0.16285028323E+02 -0.15552040150E+02 -0.12410427380E+02  0.26137651158E+02  0.47000000000E+01 0. -1.
         -5    1    4    4    0  501 -0.21639104879E+01  0.18290935447E+02 -0.10290584663E+03  0.10464675866E+03  0.47000000000E+01 0. -1.
         12    1    5    5    0    0  0.21940680371E+01 -0.20472916111E+02 -0.72016127039E+02  0.74901780903E+02  0.00000000000E+00 0. -1.
        -12    1    5    5    0    0 -0.16315185872E+02  0.17734020815E+02 -0.65043564924E+01  0.24959716298E+02  0.00000000000E+00 0. -1.
<mgrwt>
<rscale>  0 0.12499938E+03</rscale>
<asrwt>0</asrwt>
<pdfrwt beam="1">  1       21 0.28314733E-02 0.12499938E+03</pdfrwt>
<pdfrwt beam="2">  1       21 0.32652510E-01 0.12499938E+03</pdfrwt>
<totfact> 0.61750722E+06</totfact>
</mgrwt>
</event>
<event>
 9    1  0.4541185E-002  0.1250063E+03  0.7818608E-02  0.1235059E+00
         21   -1    0    0  503  502  0.00000000000E+00  0.00000000000E+00  0.13106801378E+02  0.13106801378E+02  0.00000000000E+00 0. -1.
         21   -1    0    0  502  503 -0.00000000000E+00 -0.00000000000E+00 -0.29806249450E+03  0.29806249450E+03  0.00000000000E+00 0. -1.
         25    2    1    2    0    0 -0.17763568394E-14 -0.17763568394E-14 -0.28495569313E+03  0.31116929588E+03  0.12500633446E+03 0.  0.
    9000006    2    3    3    0    0 -0.73117258527E+00  0.11196595494E+02 -0.17593701406E+03  0.18622480611E+03  0.59999559417E+02 0.  0.
    9000007    2    3    3    0    0  0.73117258527E+00 -0.11196595494E+02 -0.10901867907E+03  0.12494448977E+03  0.60001289778E+02 0.  0.
          5    1    4    4  501    0  0.14681882271E+02 -0.16654579688E+02 -0.35388260135E+02  0.42039881624E+02  0.47000000000E+01 0.  1.
         -5    1    4    4    0  501 -0.15413054856E+02  0.27851175182E+02 -0.14054875392E+03  0.14418492448E+03  0.47000000000E+01 0.  1.
         12    1    5    5    0    0 -0.22195708291E+02  0.87314092986E+01 -0.20816077945E+02  0.31657480568E+02  0.00000000000E+00 0.  1.
        -12    1    5    5    0    0  0.22926880876E+02 -0.19928004793E+02 -0.88202601121E+02  0.93287009204E+02  0.00000000000E+00 0.  1.
<mgrwt>
<rscale>  0 0.12500633E+03</rscale>
<asrwt>0</asrwt>
<pdfrwt beam="1">  1       21 0.20164309E-02 0.12500633E+03</pdfrwt>
<pdfrwt beam="2">  1       21 0.45855770E-01 0.12500633E+03</pdfrwt>
<totfact> 0.54531873E+06</totfact>
</mgrwt>
</event>
<event>
 9    1  0.4541185E-002  0.1249842E+03  0.7818608E-02  0.1235094E+00
         21   -1    0    0  503  502  0.00000000000E+00  0.00000000000E+00  0.26094497271E+03  0.26094497271E+03  0.00000000000E+00 0.  1.
         21   -1    0    0  502  503 -0.00000000000E+00 -0.00000000000E+00 -0.14965840727E+02  0.14965840727E+02  0.00000000000E+00 0.  1.
         25    2    1    2    0    0 -0.17763568394E-14 -0.13322676296E-14  0.24597913198E+03  0.27591081343E+03  0.12498417340E+03 0.  0.
    9000006    2    3    3    0    0  0.15051185723E+02 -0.31126814336E+01  0.14133102461E+03  0.15430712579E+03  0.60000029789E+02 0.  0.
    9000007    2    3    3    0    0 -0.15051185723E+02  0.31126814336E+01  0.10464810737E+03  0.12160368764E+03  0.60000029127E+02 0.  0.
          5    1    4    4  501    0  0.19969793863E+02  0.24563697707E+02  0.91044541346E+02  0.96505784390E+02  0.47000000000E+01 0. -1.
         -5    1    4    4    0  501 -0.49186081401E+01 -0.27676379141E+02  0.50286483264E+02  0.57801341398E+02  0.47000000000E+01 0. -1.
         12    1    5    5    0    0 -0.28239490388E+02  0.26029125055E+01  0.10463036544E+03  0.10840552266E+03  0.00000000000E+00 0.  1.
        -12    1    5    5    0    0  0.13188304665E+02  0.50976892802E+00  0.17741934076E-01  0.13198164989E+02  0.00000000000E+00 0.  1.
<mgrwt>
<rscale>  0 0.12498417E+03</rscale>
<asrwt>0</asrwt>
<pdfrwt beam="1">  1       21 0.40145377E-01 0.12498417E+03</pdfrwt>
<pdfrwt beam="2">  1       21 0.23024372E-02 0.12498417E+03</pdfrwt>
<totfact> 0.57542352E+06</totfact>
</mgrwt>
</event>
<event>
 9    1  0.4541185E-002  0.1249983E+03  0.7818608E-02  0.1235072E+00
         21   -1    0    0  503  502  0.00000000000E+00  0.00000000000E+00  0.10011176409E+02  0.10011176409E+02  0.00000000000E+00 0.  1.
         21   -1    0    0  502  503 -0.00000000000E+00 -0.00000000000E+00 -0.39017832711E+03  0.39017832711E+03  0.00000000000E+00 0.  1.
         25    2    1    2    0    0  0.19984014443E-14  0.00000000000E+00 -0.38016715070E+03  0.40018950352E+03  0.12499830501E+03 0.  0.
    9000006    2    3    3    0    0  0.16609805700E+01  0.16896051731E+02 -0.20361118038E+03  0.21294566752E+03  0.60000909328E+02 0.  0.
    9000007    2    3    3    0    0 -0.16609805700E+01 -0.16896051731E+02 -0.17655597032E+03  0.18724383600E+03  0.60000067020E+02 0.  0.
          5    1    4    4  501    0  0.12065652892E+01 -0.98716182229E+01 -0.43331424647E+01  0.11822468852E+02  0.47000000000E+01 0.  1.
         -5    1    4    4    0  501  0.45441528085E+00  0.26767669954E+02 -0.19927803791E+03  0.20112319867E+03  0.47000000000E+01 0.  1.
         12    1    5    5    0    0  0.17309032250E+02 -0.26324615170E+02 -0.51246634960E+02  0.60156508841E+02  0.00000000000E+00 0.  1.
        -12    1    5    5    0    0 -0.18970012820E+02  0.94285634390E+01 -0.12530933536E+03  0.12708732716E+03  0.00000000000E+00 0.  1.
<mgrwt>
<rscale>  0 0.12499831E+03</rscale>
<asrwt>0</asrwt>
<pdfrwt beam="1">  1       21 0.15401810E-02 0.12499831E+03</pdfrwt>
<pdfrwt beam="2">  1       21 0.60027435E-01 0.12499831E+03</pdfrwt>
<totfact> 0.48030818E+06</totfact>
</mgrwt>
</event>
<event>
 9    1  0.4541185E-002  0.1249999E+03  0.7818608E-02  0.1235069E+00
         21   -1    0    0  503  502  0.00000000000E+00  0.00000000000E+00  0.46779081918E+03  0.46779081918E+03  0.00000000000E+00 0.  1.
         21   -1    0    0  502  503 -0.00000000000E+00 -0.00000000000E+00 -0.83504091620E+01  0.83504091620E+01  0.00000000000E+00 0.  1.
         25    2    1    2    0    0  0.00000000000E+00 -0.35527136788E-14  0.45944041001E+03  0.47614122834E+03  0.12499991588E+03 0.  0.
    9000006    2    3    3    0    0  0.15873859136E+02 -0.67814223021E+01  0.21876092146E+03  0.22749580992E+03  0.60000297372E+02 0.  0.
    9000007    2    3    3    0    0 -0.15873859136E+02  0.67814223021E+01  0.24067948856E+03  0.24864541841E+03  0.59999673274E+02 0.  0.
          5    1    4    4  501    0 -0.14256273021E+02  0.75863735499E+01  0.14975251484E+03  0.15069406121E+03  0.47000000000E+01 0.  1.
         -5    1    4    4    0  501  0.30130132158E+02 -0.14367795852E+02  0.69008406618E+02  0.76801748713E+02  0.47000000000E+01 0.  1.
         12    1    5    5    0    0 -0.28555278502E+02 -0.16121733098E+02  0.91785242799E+02  0.97467148332E+02  0.00000000000E+00 0. -1.
        -12    1    5    5    0    0  0.12681419365E+02  0.22903155401E+02  0.14889424576E+03  0.15117827008E+03  0.00000000000E+00 0. -1.
<mgrwt>
<rscale>  0 0.12499992E+03</rscale>
<asrwt>0</asrwt>
<pdfrwt beam="1">  1       21 0.71967798E-01 0.12499992E+03</pdfrwt>
<pdfrwt beam="2">  1       21 0.12846787E-02 0.12499992E+03</pdfrwt>
<totfact> 0.43368359E+06</totfact>
</mgrwt>
</event>
<event>
 9    1  0.4541185E-002  0.1249962E+03  0.7818608E-02  0.1235075E+00
         21   -1    0    0  503  502  0.00000000000E+00  0.00000000000E+00  0.23797875239E+03  0.23797875239E+03  0.00000000000E+00 0. -1.
         21   -1    0    0  502  503 -0.00000000000E+00 -0.00000000000E+00 -0.16413289970E+02  0.16413289970E+02  0.00000000000E+00 0. -1.
         25    2    1    2    0    0  0.00000000000E+00  0.17763568394E-14  0.22156546242E+03  0.25439204236E+03  0.12499622826E+03 0.  0.
    9000006    2    3    3    0    0 -0.76379698144E+01 -0.12659956750E+02  0.12980964604E+03  0.14376787845E+03  0.60000379847E+02 0.  0.
    9000007    2    3    3    0    0  0.76379698144E+01  0.12659956750E+02  0.91755816373E+02  0.11062416390E+03  0.59999689272E+02 0.  0.
          5    1    4    4  501    0  0.17818922497E+02 -0.22688971225E+02  0.94105590978E+02  0.98540629527E+02  0.47000000000E+01 0. -1.
         -5    1    4    4    0  501 -0.25456892311E+02  0.10029014475E+02  0.35704055064E+02  0.45227248927E+02  0.47000000000E+01 0. -1.
         12    1    5    5    0    0 -0.16091923825E+02  0.27290146736E+02  0.33883380140E+02  0.46387342788E+02  0.00000000000E+00 0. -1.
        -12    1    5    5    0    0  0.23729893639E+02 -0.14630189986E+02  0.57872436233E+02  0.64236821113E+02  0.00000000000E+00 0. -1.
<mgrwt>
<rscale>  0 0.12499623E+03</rscale>
<asrwt>0</asrwt>
<pdfrwt beam="1">  1       21 0.36612113E-01 0.12499623E+03</pdfrwt>
<pdfrwt beam="2">  1       21 0.25251217E-02 0.12499623E+03</pdfrwt>
<totfact> 0.59472786E+06</totfact>
</mgrwt>
</event>
<event>
 9    1  0.4541185E-002  0.1249979E+03  0.7818608E-02  0.1235073E+00
         21   -1    0    0  503  502  0.00000000000E+00  0.00000000000E+00  0.10842357152E+04  0.10842357152E+04  0.00000000000E+00 0.  1.
         21   -1    0    0  502  503 -0.00000000000E+00 -0.00000000000E+00 -0.36026479702E+01  0.36026479702E+01  0.00000000000E+00 0.  1.
         25    2    1    2    0    0 -0.88817841970E-15  0.17763568394E-14  0.10806330672E+04  0.10878383632E+04  0.12499791356E+03 0.  0.
    9000006    2    3    3    0    0 -0.78481009275E+01 -0.32387276353E+01  0.67347925433E+03  0.67619978335E+03  0.59997991178E+02 0.  0.
    9000007    2    3    3    0    0  0.78481009275E+01  0.32387276353E+01  0.40715381288E+03  0.41163857980E+03  0.60000091601E+02 0.  0.
          5    1    4    4  501    0 -0.10089400479E+02  0.27361090034E+02  0.32023940353E+03  0.32159880414E+03  0.47000000000E+01 0. -1.
         -5    1    4    4    0  501  0.22412995510E+01 -0.30599817669E+02  0.35323985080E+03  0.35460097922E+03  0.47000000000E+01 0. -1.
         12    1    5    5    0    0 -0.14878861648E+00 -0.16565897388E+01 -0.18726605238E+01  0.25046526810E+01  0.00000000000E+00 0. -1.
        -12    1    5    5    0    0  0.79968895440E+01  0.48953173741E+01  0.40902647341E+03  0.40913392712E+03  0.00000000000E+00 0. -1.
<mgrwt>
<rscale>  0 0.12499791E+03</rscale>
<asrwt>0</asrwt>
<pdfrwt beam="1">  1       21 0.16680523E+00 0.12499791E+03</pdfrwt>
<pdfrwt beam="2">  1       21 0.55425440E-03 0.12499791E+03</pdfrwt>
<totfact> 0.21525072E+06</totfact>
</mgrwt>
</event>
<event>
 9    1  0.4541185E-002  0.1250008E+03  0.7818608E-02  0.1235068E+00
         21   -1    0    0  503  502  0.00000000000E+00  0.00000000000E+00  0.59609260973E+01  0.59609260973E+01  0.00000000000E+00 0. -1.
         21   -1    0    0  502  503 -0.00000000000E+00 -0.00000000000E+00 -0.65531769719E+03  0.65531769719E+03  0.00000000000E+00 0. -1.
         25    2    1    2    0    0  0.00000000000E+00  0.17763568394E-14 -0.64935677110E+03  0.66127862329E+03  0.12500080581E+03 0.  0.
    9000006    2    3    3    0    0  0.92410213629E+01  0.79028470908E+01 -0.25807350350E+03  0.26523510139E+03  0.59998952781E+02 0.  0.
    9000007    2    3    3    0    0 -0.92410213629E+01 -0.79028470908E+01 -0.39128326760E+03  0.39604352190E+03  0.60000202229E+02 0.  0.
          5    1    4    4  501    0 -0.67045393521E+00  0.10272958120E+02 -0.25241168791E+03  0.25266525952E+03  0.47000000000E+01 0. -1.
         -5    1    4    4    0  501  0.99114752981E+01 -0.23701110288E+01 -0.56618155916E+01  0.12569841871E+02  0.47000000000E+01 0. -1.
         12    1    5    5    0    0 -0.32851316279E+01 -0.19956248278E+02 -0.43191792586E+02  0.47692503415E+02  0.00000000000E+00 0.  1.
        -12    1    5    5    0    0 -0.59558897350E+01  0.12053401187E+02 -0.34809147501E+03  0.34835101848E+03  0.00000000000E+00 0.  1.
<mgrwt>
<rscale>  0 0.12500081E+03</rscale>
<asrwt>0</asrwt>
<pdfrwt beam="1">  1       21 0.91706579E-03 0.12500081E+03</pdfrwt>
<pdfrwt beam="2">  1       21 0.10081808E+00 0.12500081E+03</pdfrwt>
<totfact> 0.34456292E+06</totfact>
</mgrwt>
</event>
<event>
 9    1  0.4541185E-002  0.1249991E+03  0.7818608E-02  0.1235071E+00
         21   -1    0    0  503  502  0.00000000000E+00  0.00000000000E+00  0.12706218275E+03  0.12706218275E+03  0.00000000000E+00 0. -1.
         21   -1    0    0  502  503 -0.00000000000E+00 -0.00000000000E+00 -0.30742378519E+02  0.30742378519E+02  0.00000000000E+00 0. -1.
         25    2    1    2    0    0  0.88817841970E-15  0.00000000000E+00  0.96319804235E+02  0.15780456127E+03  0.12499909948E+03 0.  0.
    9000006    2    3    3    0    0 -0.27426755181E+01 -0.13079930105E+02  0.62403673648E+02  0.87594433165E+02  0.59999661635E+02 0.  0.
    9000007    2    3    3    0    0  0.27426755181E+01  0.13079930105E+02  0.33916130587E+02  0.70210128107E+02  0.60004594276E+02 0.  0.
          5    1    4    4  501    0 -0.26345812971E+02 -0.57639744506E-01  0.51692017745E+02  0.58208761214E+02  0.47000000000E+01 0. -1.
         -5    1    4    4    0  501  0.23603137453E+02 -0.13022290361E+02  0.10711655903E+02  0.29385671952E+02  0.47000000000E+01 0. -1.
         12    1    5    5    0    0  0.23610589430E+01 -0.12736119537E+01 -0.17050123987E+02  0.17259878757E+02  0.00000000000E+00 0. -1.
        -12    1    5    5    0    0  0.38161657513E+00  0.14353542059E+02  0.50966254574E+02  0.52950249350E+02  0.00000000000E+00 0. -1.
<mgrwt>
<rscale>  0 0.12499910E+03</rscale>
<asrwt>0</asrwt>
<pdfrwt beam="1">  1       21 0.19548028E-01 0.12499910E+03</pdfrwt>
<pdfrwt beam="2">  1       21 0.47295968E-02 0.12499910E+03</pdfrwt>
<totfact> 0.69790353E+06</totfact>
</mgrwt>
</event>
<event>
 9    1  0.4541185E-002  0.1250012E+03  0.7818608E-02  0.1235067E+00
         21   -1    0    0  503  502  0.00000000000E+00  0.00000000000E+00  0.45750898059E+02  0.45750898059E+02  0.00000000000E+00 0. -1.
         21   -1    0    0  502  503 -0.00000000000E+00 -0.00000000000E+00 -0.85382418891E+02  0.85382418891E+02  0.00000000000E+00 0. -1.
         25    2    1    2    0    0  0.00000000000E+00  0.00000000000E+00 -0.39631520831E+02  0.13113331695E+03  0.12500115748E+03 0.  0.
    9000006    2    3    3    0    0 -0.18550478586E+01  0.10136938825E+02 -0.49820603942E+01  0.61084358228E+02  0.60002326314E+02 0.  0.
    9000007    2    3    3    0    0  0.18550478586E+01 -0.10136938825E+02 -0.34649460437E+02  0.70048958722E+02  0.60000606482E+02 0.  0.
          5    1    4    4  501    0  0.24600832810E+02 -0.25039997863E+01 -0.15524802354E+02  0.29573306850E+02  0.47000000000E+01 0.  1.
         -5    1    4    4    0  501 -0.26455880669E+02  0.12640938612E+02  0.10542741960E+02  0.31511051378E+02  0.47000000000E+01 0.  1.
         12    1    5    5    0    0 -0.19196280233E+02 -0.27447721815E+02 -0.16820936752E+02  0.37480908751E+02  0.00000000000E+00 0. -1.
        -12    1    5    5    0    0  0.21051328091E+02  0.17310782990E+02 -0.17828523685E+02  0.32568049971E+02  0.00000000000E+00 0. -1.
<mgrwt>
<rscale>  0 0.12500116E+03</rscale>
<asrwt>0</asrwt>
<pdfrwt beam="1">  1       21 0.70385997E-02 0.12500116E+03</pdfrwt>
<pdfrwt beam="2">  1       21 0.13135757E-01 0.12500116E+03</pdfrwt>
<totfact> 0.73210549E+06</totfact>
</mgrwt>
</event>
<event>
 9    1  0.4541185E-002  0.1250011E+03  0.7818608E-02  0.1235068E+00
         21   -1    0    0  503  502  0.00000000000E+00  0.00000000000E+00  0.38293814055E+03  0.38293814055E+03  0.00000000000E+00 0. -1.
         21   -1    0    0  502  503 -0.00000000000E+00 -0.00000000000E+00 -0.10200913406E+02  0.10200913406E+02  0.00000000000E+00 0. -1.
         25    2    1    2    0    0 -0.17763568394E-14  0.17763568394E-14  0.37273722715E+03  0.39313905396E+03  0.12500110098E+03 0.  0.
    9000006    2    3    3    0    0 -0.15533171063E+02  0.73938285863E+01  0.19649386698E+03  0.20616916927E+03  0.59999487448E+02 0.  0.
    9000007    2    3    3    0    0  0.15533171063E+02 -0.73938285863E+01  0.17624336017E+03  0.18696988469E+03  0.60000563929E+02 0.  0.
          5    1    4    4  501    0  0.79907768053E+01 -0.21638665884E+02  0.56737273881E+02  0.61427132626E+02  0.47000000000E+01 0.  1.
         -5    1    4    4    0  501 -0.23523947868E+02  0.29032494470E+02  0.13975659310E+03  0.14474203665E+03  0.47000000000E+01 0.  1.
         12    1    5    5    0    0  0.10361644507E+02 -0.11892188170E+02  0.17891830757E+03  0.17961221729E+03  0.00000000000E+00 0. -1.
        -12    1    5    5    0    0  0.51715265551E+01  0.44983595832E+01 -0.26749474044E+01  0.73576673930E+01  0.00000000000E+00 0. -1.
<mgrwt>
<rscale>  0 0.12500110E+03</rscale>
<asrwt>0</asrwt>
<pdfrwt beam="1">  1       21 0.58913549E-01 0.12500110E+03</pdfrwt>
<pdfrwt beam="2">  1       21 0.15693716E-02 0.12500110E+03</pdfrwt>
<totfact> 0.48498454E+06</totfact>
</mgrwt>
</event>
<event>
 9    1  0.4541185E-002  0.1250039E+03  0.7818608E-02  0.1235063E+00
         21   -1    0    0  503  502  0.00000000000E+00  0.00000000000E+00  0.12226005089E+03  0.12226005089E+03  0.00000000000E+00 0. -1.
         21   -1    0    0  502  503 -0.00000000000E+00 -0.00000000000E+00 -0.31952333031E+02  0.31952333031E+02  0.00000000000E+00 0. -1.
         25    2    1    2    0    0 -0.17763568394E-14  0.00000000000E+00  0.90307717859E+02  0.15421238392E+03  0.12500390174E+03 0.  0.
    9000006    2    3    3    0    0  0.14132083834E+02  0.93037100560E+01  0.39608966348E+02  0.73859029676E+02  0.60000093628E+02 0.  0.
    9000007    2    3    3    0    0 -0.14132083834E+02 -0.93037100560E+01  0.50698751511E+02  0.80353354243E+02  0.60000194326E+02 0.  0.
          5    1    4    4  501    0 -0.16906770103E+01 -0.22826041860E+02  0.26746853548E+02  0.35515781710E+02  0.47000000000E+01 0. -1.
         -5    1    4    4    0  501  0.15822760844E+02  0.32129751916E+02  0.12862112799E+02  0.38343247966E+02  0.47000000000E+01 0. -1.
         12    1    5    5    0    0 -0.28666893601E+02 -0.25643727774E+02  0.41630073570E+02  0.56678519638E+02  0.00000000000E+00 0. -1.
        -12    1    5    5    0    0  0.14534809768E+02  0.16340017718E+02  0.90686779409E+01  0.23674834606E+02  0.00000000000E+00 0. -1.
<mgrwt>
<rscale>  0 0.12500390E+03</rscale>
<asrwt>0</asrwt>
<pdfrwt beam="1">  1       21 0.18809238E-01 0.12500390E+03</pdfrwt>
<pdfrwt beam="2">  1       21 0.49157436E-02 0.12500390E+03</pdfrwt>
<totfact> 0.70226711E+06</totfact>
</mgrwt>
</event>
<event>
 9    1  0.4541185E-002  0.1250010E+03  0.7818608E-02  0.1235068E+00
         21   -1    0    0  503  502  0.00000000000E+00  0.00000000000E+00  0.20464451013E+02  0.20464451013E+02  0.00000000000E+00 0. -1.
         21   -1    0    0  502  503 -0.00000000000E+00 -0.00000000000E+00 -0.19088273626E+03  0.19088273626E+03  0.00000000000E+00 0. -1.
         25    2    1    2    0    0  0.17763568394E-14 -0.35527136788E-14 -0.17041828525E+03  0.21134718728E+03  0.12500096648E+03 0.  0.
    9000006    2    3    3    0    0  0.64962078796E+01 -0.13442712751E+02 -0.10063999728E+03  0.11811683378E+03  0.60002251027E+02 0.  0.
    9000007    2    3    3    0    0 -0.64962078796E+01  0.13442712751E+02 -0.69778287976E+02  0.93230353495E+02  0.59999850809E+02 0.  0.
          5    1    4    4  501    0  0.31112339167E+01  0.18925057357E+02 -0.10928321272E+02  0.22568911765E+02  0.47000000000E+01 0. -1.
         -5    1    4    4    0  501  0.33849739629E+01 -0.32367770107E+02 -0.89711676004E+02  0.95547922018E+02  0.47000000000E+01 0. -1.
         12    1    5    5    0    0  0.14803085854E+02 -0.16596267514E+02 -0.40426691504E+02  0.46139839967E+02  0.00000000000E+00 0. -1.
        -12    1    5    5    0    0 -0.21299293733E+02  0.30038980265E+02 -0.29351596472E+02  0.47090513528E+02  0.00000000000E+00 0. -1.
<mgrwt>
<rscale>  0 0.12500097E+03</rscale>
<asrwt>0</asrwt>
<pdfrwt beam="1">  1       21 0.31483770E-02 0.12500097E+03</pdfrwt>
<pdfrwt beam="2">  1       21 0.29366576E-01 0.12500097E+03</pdfrwt>
<totfact> 0.63716516E+06</totfact>
</mgrwt>
</event>
<event>
 9    1  0.4541185E-002  0.1249990E+03  0.7818608E-02  0.1235071E+00
         21   -1    0    0  503  502  0.00000000000E+00  0.00000000000E+00  0.56813156610E+01  0.56813156610E+01  0.00000000000E+00 0. -1.
         21   -1    0    0  502  503 -0.00000000000E+00 -0.00000000000E+00 -0.68754989713E+03  0.68754989713E+03  0.00000000000E+00 0. -1.
         25    2    1    2    0    0  0.00000000000E+00 -0.35527136788E-14 -0.68186858146E+03  0.69323121279E+03  0.12499900797E+03 0.  0.
    9000006    2    3    3    0    0 -0.72609833218E+01 -0.11319948577E+02 -0.27883599458E+03  0.28553510591E+03  0.59999347674E+02 0.  0.
    9000007    2    3    3    0    0  0.72609833218E+01  0.11319948577E+02 -0.40303258688E+03  0.40769610687E+03  0.59999886280E+02 0.  0.
          5    1    4    4  501    0  0.98127129778E+01 -0.21698660184E+02 -0.24321565582E+03  0.24442394814E+03  0.47000000000E+01 0. -1.
         -5    1    4    4    0  501 -0.17073696300E+02  0.10378711607E+02 -0.35620338764E+02  0.41111157775E+02  0.47000000000E+01 0. -1.
         12    1    5    5    0    0  0.18485860608E+02  0.28373498168E+02 -0.14697270359E+03  0.15082359908E+03  0.00000000000E+00 0.  1.
        -12    1    5    5    0    0 -0.11224877286E+02 -0.17053549591E+02 -0.25605988330E+03  0.25687250779E+03  0.00000000000E+00 0.  1.
<mgrwt>
<rscale>  0 0.12499901E+03</rscale>
<asrwt>0</asrwt>
<pdfrwt beam="1">  1       21 0.87404812E-03 0.12499901E+03</pdfrwt>
<pdfrwt beam="2">  1       21 0.10577696E+00 0.12499901E+03</pdfrwt>
<totfact> 0.33173539E+06</totfact>
</mgrwt>
</event>
<event>
 9    1  0.4541185E-002  0.1250047E+03  0.7818608E-02  0.1235062E+00
         21   -1    0    0  503  502  0.00000000000E+00  0.00000000000E+00  0.67504013908E+01  0.67504013908E+01  0.00000000000E+00 0. -1.
         21   -1    0    0  502  503 -0.00000000000E+00 -0.00000000000E+00 -0.57871284360E+03  0.57871284360E+03  0.00000000000E+00 0. -1.
         25    2    1    2    0    0  0.17763568394E-14  0.00000000000E+00 -0.57196244221E+03  0.58546324499E+03  0.12500470366E+03 0.  0.
    9000006    2    3    3    0    0  0.46400892294E+01  0.16587649491E+02 -0.27124356157E+03  0.27833381224E+03  0.59999673319E+02 0.  0.
    9000007    2    3    3    0    0 -0.46400892294E+01 -0.16587649491E+02 -0.30071888064E+03  0.30712943275E+03  0.59999689550E+02 0.  0.
          5    1    4    4  501    0 -0.59211275140E+01 -0.19567265187E+02 -0.56649524260E+02  0.60408577345E+02  0.47000000000E+01 0. -1.
         -5    1    4    4    0  501  0.10561216743E+02  0.36154914678E+02 -0.21459403731E+03  0.21792523490E+03  0.47000000000E+01 0. -1.
         12    1    5    5    0    0 -0.26190708968E+02  0.98715662994E+01 -0.15083376409E+03  0.15340868765E+03  0.00000000000E+00 0.  1.
        -12    1    5    5    0    0  0.21550619738E+02 -0.26459215790E+02 -0.14988511655E+03  0.15372074510E+03  0.00000000000E+00 0.  1.
<mgrwt>
<rscale>  0 0.12500470E+03</rscale>
<asrwt>0</asrwt>
<pdfrwt beam="1">  1       21 0.10385225E-02 0.12500470E+03</pdfrwt>
<pdfrwt beam="2">  1       21 0.89032814E-01 0.12500470E+03</pdfrwt>
<totfact> 0.37753965E+06</totfact>
</mgrwt>
</event>
<event>
 9    1  0.4541185E-002  0.1249997E+03  0.7818608E-02  0.1235070E+00
         21   -1    0    0  503  502  0.00000000000E+00  0.00000000000E+00  0.13663001283E+04  0.13663001283E+04  0.00000000000E+00 0.  1.
         21   -1    0    0  502  503 -0.00000000000E+00 -0.00000000000E+00 -0.28589856200E+01  0.28589856200E+01  0.00000000000E+00 0.  1.
         25    2    1    2    0    0 -0.35527136788E-14  0.35527136788E-14  0.13634411427E+04  0.13691591139E+04  0.12499971871E+03 0.  0.
    9000006    2    3    3    0    0  0.16212182038E+02 -0.21595183647E+01  0.74987590299E+03  0.75245022103E+03  0.59999723960E+02 0.  0.
    9000007    2    3    3    0    0 -0.16212182038E+02  0.21595183647E+01  0.61356523972E+03  0.61670889292E+03  0.60000473744E+02 0.  0.
          5    1    4    4  501    0 -0.64911853064E+01  0.10902111875E+02  0.43110682689E+02  0.45184206222E+02  0.47000000000E+01 0. -1.
         -5    1    4    4    0  501  0.22703367344E+02 -0.13061630240E+02  0.70676522030E+03  0.70726601481E+03  0.47000000000E+01 0. -1.
         12    1    5    5    0    0  0.85336381326E+01  0.17947039236E+02  0.45600260731E+03  0.45643542487E+03  0.00000000000E+00 0.  1.
        -12    1    5    5    0    0 -0.24745820171E+02 -0.15787520871E+02  0.15756263241E+03  0.16027346805E+03  0.00000000000E+00 0.  1.
<mgrwt>
<rscale>  0 0.12499972E+03</rscale>
<asrwt>0</asrwt>
<pdfrwt beam="1">  1       21 0.21019950E+00 0.12499972E+03</pdfrwt>
<pdfrwt beam="2">  1       21 0.43984503E-03 0.12499972E+03</pdfrwt>
<totfact> 0.16054637E+06</totfact>
</mgrwt>
</event>
<event>
 9    1  0.4541185E-002  0.1250182E+03  0.7818608E-02  0.1235041E+00
         21   -1    0    0  503  502  0.00000000000E+00  0.00000000000E+00  0.36923330797E+02  0.36923330797E+02  0.00000000000E+00 0. -1.
         21   -1    0    0  502  503 -0.00000000000E+00 -0.00000000000E+00 -0.10582435129E+03  0.10582435129E+03  0.00000000000E+00 0. -1.
         25    2    1    2    0    0  0.00000000000E+00 -0.35527136788E-14 -0.68901020498E+02  0.14274768209E+03  0.12501819914E+03 0.  0.
    9000006    2    3    3    0    0 -0.96903656089E+01  0.37368362236E+01 -0.50578936476E+02  0.79158951657E+02  0.60000364013E+02 0.  0.
    9000007    2    3    3    0    0  0.96903656089E+01 -0.37368362236E+01 -0.18322084022E+02  0.63588730435E+02  0.59999672873E+02 0.  0.
          5    1    4    4  501    0  0.57031159829E+01 -0.22596107584E+02 -0.40004295940E+02  0.46535398393E+02  0.47000000000E+01 0.  1.
         -5    1    4    4    0  501 -0.15393481592E+02  0.26332943808E+02 -0.10574640536E+02  0.32623553264E+02  0.47000000000E+01 0.  1.
         12    1    5    5    0    0  0.93208128021E+01 -0.30891985630E+02 -0.29993622913E+01  0.32406612005E+02  0.00000000000E+00 0.  1.
        -12    1    5    5    0    0  0.36955280679E+00  0.27155149407E+02 -0.15322721730E+02  0.31182118430E+02  0.00000000000E+00 0.  1.
<mgrwt>
<rscale>  0 0.12501820E+03</rscale>
<asrwt>0</asrwt>
<pdfrwt beam="1">  1       21 0.56805126E-02 0.12501820E+03</pdfrwt>
<pdfrwt beam="2">  1       21 0.16280669E-01 0.12501820E+03</pdfrwt>
<totfact> 0.71649384E+06</totfact>
</mgrwt>
</event>
<event>
 9    1  0.4541185E-002  0.1250004E+03  0.7818608E-02  0.1235069E+00
         21   -1    0    0  503  502  0.00000000000E+00  0.00000000000E+00  0.13301588445E+03  0.13301588445E+03  0.00000000000E+00 0. -1.
         21   -1    0    0  502  503 -0.00000000000E+00 -0.00000000000E+00 -0.29366999177E+02  0.29366999177E+02  0.00000000000E+00 0. -1.
         25    2    1    2    0    0  0.35527136788E-14  0.17763568394E-14  0.10364888528E+03  0.16238288363E+03  0.12500043791E+03 0.  0.
    9000006    2    3    3    0    0  0.64113707931E+01  0.97130309743E+01  0.34876259365E+02  0.70369101856E+02  0.60000069855E+02 0.  0.
    9000007    2    3    3    0    0 -0.64113707931E+01 -0.97130309743E+01  0.68772625911E+02  0.92013781775E+02  0.60011776475E+02 0.  0.
          5    1    4    4  501    0 -0.46596688905E+01  0.25459565305E+02  0.41792560263E+02  0.49382285012E+02  0.47000000000E+01 0. -1.
         -5    1    4    4    0  501  0.11071039684E+02 -0.15746534331E+02 -0.69163008983E+01  0.20986816844E+02  0.47000000000E+01 0. -1.
         12    1    5    5    0    0  0.22553237051E+02  0.10592660775E+02  0.21098059908E+02  0.32649365930E+02  0.00000000000E+00 0.  1.
        -12    1    5    5    0    0 -0.28964607844E+02 -0.20305691749E+02  0.47674566003E+02  0.59364415844E+02  0.00000000000E+00 0.  1.
<mgrwt>
<rscale>  0 0.12500044E+03</rscale>
<asrwt>0</asrwt>
<pdfrwt beam="1">  1       21 0.20463982E-01 0.12500044E+03</pdfrwt>
<pdfrwt beam="2">  1       21 0.45180000E-02 0.12500044E+03</pdfrwt>
<totfact> 0.69228729E+06</totfact>
</mgrwt>
</event>
<event>
 9    1  0.4541185E-002  0.1249978E+03  0.7818608E-02  0.1235073E+00
         21   -1    0    0  503  502  0.00000000000E+00  0.00000000000E+00  0.96256822578E+03  0.96256822578E+03  0.00000000000E+00 0.  1.
         21   -1    0    0  502  503 -0.00000000000E+00 -0.00000000000E+00 -0.40580119109E+01  0.40580119109E+01  0.00000000000E+00 0.  1.
         25    2    1    2    0    0  0.88817841970E-15  0.00000000000E+00  0.95851021387E+03  0.96662623769E+03  0.12499781319E+03 0.  0.
    9000006    2    3    3    0    0 -0.38050755422E+01  0.27364734054E+01  0.60963342307E+03  0.61259692107E+03  0.60000919147E+02 0.  0.
    9000007    2    3    3    0    0  0.38050755422E+01 -0.27364734054E+01  0.34887679080E+03  0.35402931662E+03  0.59998124800E+02 0.  0.
          5    1    4    4  501    0  0.11965176996E+02  0.24597651270E+02  0.18362226638E+03  0.18570793364E+03  0.47000000000E+01 0. -1.
         -5    1    4    4    0  501 -0.15770252539E+02 -0.21861177865E+02  0.42601115669E+03  0.42688898743E+03  0.47000000000E+01 0. -1.
         12    1    5    5    0    0  0.96434316013E+01  0.15192028777E+02  0.32973962831E+02  0.37564288043E+02  0.00000000000E+00 0. -1.
        -12    1    5    5    0    0 -0.58383560591E+01 -0.17928502183E+02  0.31590282797E+03  0.31646502858E+03  0.00000000000E+00 0. -1.
<mgrwt>
<rscale>  0 0.12499781E+03</rscale>
<asrwt>0</asrwt>
<pdfrwt beam="1">  1       21 0.14808724E+00 0.12499781E+03</pdfrwt>
<pdfrwt beam="2">  1       21 0.62431029E-03 0.12499781E+03</pdfrwt>
<totfact> 0.24472837E+06</totfact>
</mgrwt>
</event>
<event>
 9    1  0.4541185E-002  0.1249985E+03  0.7818608E-02  0.1235072E+00
         21   -1    0    0  503  502  0.00000000000E+00  0.00000000000E+00  0.51007822514E+02  0.51007822514E+02  0.00000000000E+00 0. -1.
         21   -1    0    0  502  503 -0.00000000000E+00 -0.00000000000E+00 -0.76579580998E+02  0.76579580998E+02  0.00000000000E+00 0. -1.
         25    2    1    2    0    0 -0.17763568394E-14  0.00000000000E+00 -0.25571758484E+02  0.12758740351E+03  0.12499852280E+03 0.  0.
    9000006    2    3    3    0    0  0.15860040313E+01  0.17422136659E+02 -0.12417017323E+02  0.63719688472E+02  0.59999751043E+02 0.  0.
    9000007    2    3    3    0    0 -0.15860040313E+01 -0.17422136659E+02 -0.13154741161E+02  0.63867715040E+02  0.59999929624E+02 0.  0.
          5    1    4    4  501    0  0.30383402904E+02  0.87051020794E+01 -0.80852018374E+01  0.32960437846E+02  0.47000000000E+01 0.  1.
         -5    1    4    4    0  501 -0.28797398873E+02  0.87170345791E+01 -0.43318154855E+01  0.30759250626E+02  0.47000000000E+01 0.  1.
         12    1    5    5    0    0 -0.11829646416E+02  0.11901012189E+02  0.14577684993E+02  0.22227989680E+02  0.00000000000E+00 0. -1.
        -12    1    5    5    0    0  0.10243642385E+02 -0.29323148848E+02 -0.27732426155E+02  0.41639725360E+02  0.00000000000E+00 0. -1.
<mgrwt>
<rscale>  0 0.12499852E+03</rscale>
<asrwt>0</asrwt>
<pdfrwt beam="1">  1       21 0.78473573E-02 0.12499852E+03</pdfrwt>
<pdfrwt beam="2">  1       21 0.11781474E-01 0.12499852E+03</pdfrwt>
<totfact> 0.73692152E+06</totfact>
</mgrwt>
</event>
<event>
 9    1  0.4541185E-002  0.1250003E+03  0.7818608E-02  0.1235069E+00
         21   -1    0    0  503  502  0.00000000000E+00  0.00000000000E+00  0.26361502188E+02  0.26361502188E+02  0.00000000000E+00 0. -1.
         21   -1    0    0  502  503 -0.00000000000E+00 -0.00000000000E+00 -0.14818069698E+03  0.14818069698E+03  0.00000000000E+00 0. -1.
         25    2    1    2    0    0 -0.44408920985E-14  0.17763568394E-14 -0.12181919479E+03  0.17454219917E+03  0.12500025228E+03 0.  0.
    9000006    2    3    3    0    0 -0.62861219310E+01 -0.24455379790E+00 -0.38106500213E+02  0.71356366209E+02  0.60000420870E+02 0.  0.
    9000007    2    3    3    0    0  0.62861219310E+01  0.24455379790E+00 -0.83712694580E+02  0.10318583296E+03  0.59999381283E+02 0.  0.
          5    1    4    4  501    0 -0.24886706624E+02  0.41588632824E+01 -0.43887126341E+02  0.50841067739E+02  0.47000000000E+01 0. -1.
         -5    1    4    4    0  501  0.18600584693E+02 -0.44034170803E+01  0.57806261274E+01  0.20515298470E+02  0.47000000000E+01 0. -1.
         12    1    5    5    0    0 -0.51414022142E+01 -0.19585967851E+02 -0.45143245817E+01  0.20746645026E+02  0.00000000000E+00 0. -1.
        -12    1    5    5    0    0  0.11427524145E+02  0.19830521649E+02 -0.79198369998E+02  0.82439187935E+02  0.00000000000E+00 0. -1.
<mgrwt>
<rscale>  0 0.12500025E+03</rscale>
<asrwt>0</asrwt>
<pdfrwt beam="1">  1       21 0.40556157E-02 0.12500025E+03</pdfrwt>
<pdfrwt beam="2">  1       21 0.22797030E-01 0.12500025E+03</pdfrwt>
<totfact> 0.67782787E+06</totfact>
</mgrwt>
</event>
<event>
 9    1  0.4541185E-002  0.1250004E+03  0.7818608E-02  0.1235069E+00
         21   -1    0    0  503  502  0.00000000000E+00  0.00000000000E+00  0.98207996693E+02  0.98207996693E+02  0.00000000000E+00 0. -1.
         21   -1    0    0  502  503 -0.00000000000E+00 -0.00000000000E+00 -0.39775554643E+02  0.39775554643E+02  0.00000000000E+00 0. -1.
         25    2    1    2    0    0  0.00000000000E+00 -0.35527136788E-14  0.58432442050E+02  0.13798355134E+03  0.12500044062E+03 0.  0.
    9000006    2    3    3    0    0  0.11652563225E+02  0.12646557382E+02  0.32818471342E+02  0.70516266428E+02  0.59998117690E+02 0.  0.
    9000007    2    3    3    0    0 -0.11652563225E+02 -0.12646557382E+02  0.25613970708E+02  0.67467284909E+02  0.60000344951E+02 0.  0.
          5    1    4    4  501    0  0.32313728373E+02  0.94526729330E+01  0.35224934476E+02  0.48953202917E+02  0.47000000000E+01 0. -1.
         -5    1    4    4    0  501 -0.20661165148E+02  0.31938844492E+01 -0.24064631341E+01  0.21563063511E+02  0.47000000000E+01 0. -1.
         12    1    5    5    0    0 -0.23719277605E+02 -0.22288775123E+02 -0.52357992535E+01  0.32966759325E+02  0.00000000000E+00 0. -1.
        -12    1    5    5    0    0  0.12066714379E+02  0.96422177410E+01  0.30849769961E+02  0.34500525584E+02  0.00000000000E+00 0. -1.
<mgrwt>
<rscale>  0 0.12500044E+03</rscale>
<asrwt>0</asrwt>
<pdfrwt beam="1">  1       21 0.15108922E-01 0.12500044E+03</pdfrwt>
<pdfrwt beam="2">  1       21 0.61193161E-02 0.12500044E+03</pdfrwt>
<totfact> 0.72302845E+06</totfact>
</mgrwt>
</event>
<event>
 9    1  0.4541185E-002  0.1249995E+03  0.7818608E-02  0.1235070E+00
         21   -1    0    0  503  502  0.00000000000E+00  0.00000000000E+00  0.49857823373E+02  0.49857823373E+02  0.00000000000E+00 0.  1.
         21   -1    0    0  502  503 -0.00000000000E+00 -0.00000000000E+00 -0.78347124608E+02  0.78347124608E+02  0.00000000000E+00 0.  1.
         25    2    1    2    0    0  0.17763568394E-14 -0.35527136788E-14 -0.28489301236E+02  0.12820494798E+03  0.12499947361E+03 0.  0.
    9000006    2    3    3    0    0 -0.92573285104E+01 -0.84042429131E+01 -0.16885281915E+01  0.61311565885E+02  0.59999396278E+02 0.  0.
    9000007    2    3    3    0    0  0.92573285104E+01  0.84042429131E+01 -0.26800773044E+02  0.66893382096E+02  0.60000947512E+02 0.  0.
          5    1    4    4  501    0  0.53793519826E+00  0.23719717641E+02  0.89203738168E+01  0.25779399688E+02  0.47000000000E+01 0.  1.
         -5    1    4    4    0  501 -0.97952637087E+01 -0.32123960554E+02 -0.10608902008E+02  0.35532166197E+02  0.47000000000E+01 0.  1.
         12    1    5    5    0    0  0.19646586603E+02 -0.10123884245E+02  0.10111887339E+02  0.24304971979E+02  0.00000000000E+00 0. -1.
        -12    1    5    5    0    0 -0.10389258093E+02  0.18528127158E+02 -0.36912660383E+02  0.42588410117E+02  0.00000000000E+00 0. -1.
<mgrwt>
<rscale>  0 0.12499947E+03</rscale>
<asrwt>0</asrwt>
<pdfrwt beam="1">  1       21 0.76704344E-02 0.12499947E+03</pdfrwt>
<pdfrwt beam="2">  1       21 0.12053404E-01 0.12499947E+03</pdfrwt>
<totfact> 0.73606881E+06</totfact>
</mgrwt>
</event>
<event>
 9    1  0.4541185E-002  0.1249931E+03  0.7818608E-02  0.1235080E+00
         21   -1    0    0  503  502  0.00000000000E+00  0.00000000000E+00  0.77996077387E+01  0.77996077387E+01  0.00000000000E+00 0. -1.
         21   -1    0    0  502  503 -0.00000000000E+00 -0.00000000000E+00 -0.50077123768E+03  0.50077123768E+03  0.00000000000E+00 0. -1.
         25    2    1    2    0    0 -0.17763568394E-14  0.35527136788E-14 -0.49297162994E+03  0.50857084542E+03  0.12499310734E+03 0.  0.
    9000006    2    3    3    0    0  0.92961504229E+01  0.23353301546E+01 -0.30602893065E+03  0.31200157600E+03  0.59995040255E+02 0.  0.
    9000007    2    3    3    0    0 -0.92961504229E+01 -0.23353301546E+01 -0.18694269930E+03  0.19656926942E+03  0.60000272332E+02 0.  0.
          5    1    4    4  501    0  0.16600289695E+02  0.28203386189E+02 -0.18539818007E+03  0.18832306227E+03  0.47000000000E+01 0.  1.
         -5    1    4    4    0  501 -0.73041392725E+01 -0.25868056035E+02 -0.12063075058E+03  0.12367851373E+03  0.47000000000E+01 0.  1.
         12    1    5    5    0    0  0.44719652212E+01 -0.26640885558E+02 -0.13413771013E+03  0.13683077335E+03  0.00000000000E+00 0. -1.
        -12    1    5    5    0    0 -0.13768115644E+02  0.24305555404E+02 -0.52804989168E+02  0.59738496072E+02  0.00000000000E+00 0. -1.
<mgrwt>
<rscale>  0 0.12499311E+03</rscale>
<asrwt>0</asrwt>
<pdfrwt beam="1">  1       21 0.11999398E-02 0.12499311E+03</pdfrwt>
<pdfrwt beam="2">  1       21 0.77041716E-01 0.12499311E+03</pdfrwt>
<totfact> 0.41590176E+06</totfact>
</mgrwt>
</event>
<event>
 9    1  0.4541185E-002  0.1249947E+03  0.7818608E-02  0.1235078E+00
         21   -1    0    0  503  502  0.00000000000E+00  0.00000000000E+00  0.60001984644E+02  0.60001984644E+02  0.00000000000E+00 0. -1.
         21   -1    0    0  502  503 -0.00000000000E+00 -0.00000000000E+00 -0.65096469862E+02  0.65096469862E+02  0.00000000000E+00 0. -1.
         25    2    1    2    0    0  0.88817841970E-15  0.17763568394E-14 -0.50944852184E+01  0.12509845451E+03  0.12499467805E+03 0.  0.
    9000006    2    3    3    0    0  0.40410338696E+01  0.12282484610E+02  0.92687545189E+01  0.62061398160E+02  0.59987648297E+02 0.  0.
    9000007    2    3    3    0    0 -0.40410338696E+01 -0.12282484610E+02 -0.14363239737E+02  0.63037056346E+02  0.60001486933E+02 0.  0.
          5    1    4    4  501    0  0.38573037284E+01  0.35148044302E+02  0.13863036780E+02  0.38269277483E+02  0.47000000000E+01 0.  1.
         -5    1    4    4    0  501  0.18373014122E+00 -0.22865559692E+02 -0.45942822613E+01  0.23792120677E+02  0.47000000000E+01 0.  1.
         12    1    5    5    0    0  0.10812083695E+02 -0.27322076764E+02  0.97609433632E+01  0.30962445767E+02  0.00000000000E+00 0. -1.
        -12    1    5    5    0    0 -0.14853117564E+02  0.15039592154E+02 -0.24124183100E+02  0.32074610579E+02  0.00000000000E+00 0. -1.
<mgrwt>
<rscale>  0 0.12499468E+03</rscale>
<asrwt>0</asrwt>
<pdfrwt beam="1">  1       21 0.92310746E-02 0.12499468E+03</pdfrwt>
<pdfrwt beam="2">  1       21 0.10014841E-01 0.12499468E+03</pdfrwt>
<totfact> 0.74040358E+06</totfact>
</mgrwt>
</event>
<event>
 9    1  0.4541185E-002  0.1250011E+03  0.7818608E-02  0.1235067E+00
         21   -1    0    0  503  502  0.00000000000E+00  0.00000000000E+00  0.65097366576E+01  0.65097366576E+01  0.00000000000E+00 0. -1.
         21   -1    0    0  502  503 -0.00000000000E+00 -0.00000000000E+00 -0.60007368347E+03  0.60007368347E+03  0.00000000000E+00 0. -1.
         25    2    1    2    0    0 -0.17763568394E-14  0.00000000000E+00 -0.59356394682E+03  0.60658342013E+03  0.12500114647E+03 0.  0.
    9000006    2    3    3    0    0 -0.45177731766E+01 -0.16757044026E+02 -0.28584552376E+03  0.29259008655E+03  0.60000720779E+02 0.  0.
    9000007    2    3    3    0    0  0.45177731766E+01  0.16757044026E+02 -0.30771842305E+03  0.31399333358E+03  0.59999807061E+02 0.  0.
          5    1    4    4  501    0  0.25077931315E+02 -0.18681861692E+02 -0.16998850082E+03  0.17290487271E+03  0.47000000000E+01 0. -1.
         -5    1    4    4    0  501 -0.29595704492E+02  0.19248176665E+01 -0.11585702294E+03  0.11968521384E+03  0.47000000000E+01 0. -1.
         12    1    5    5    0    0  0.67042269948E+01  0.33631292187E+02 -0.27485659993E+03  0.27698765496E+03  0.00000000000E+00 0. -1.
        -12    1    5    5    0    0 -0.21864538182E+01 -0.16874248161E+02 -0.32861823120E+02  0.37005678619E+02  0.00000000000E+00 0. -1.
<mgrwt>
<rscale>  0 0.12500115E+03</rscale>
<asrwt>0</asrwt>
<pdfrwt beam="1">  1       21 0.10014980E-02 0.12500115E+03</pdfrwt>
<pdfrwt beam="2">  1       21 0.92319019E-01 0.12500115E+03</pdfrwt>
<totfact> 0.36795542E+06</totfact>
</mgrwt>
</event>
<event>
 9    1  0.4541185E-002  0.1249893E+03  0.7818608E-02  0.1235086E+00
         21   -1    0    0  503  502  0.00000000000E+00  0.00000000000E+00  0.10522839209E+02  0.10522839209E+02  0.00000000000E+00 0.  1.
         21   -1    0    0  502  503 -0.00000000000E+00 -0.00000000000E+00 -0.37115299564E+03  0.37115299564E+03  0.00000000000E+00 0.  1.
         25    2    1    2    0    0  0.00000000000E+00  0.00000000000E+00 -0.36063015643E+03  0.38167583485E+03  0.12498933226E+03 0.  0.
    9000006    2    3    3    0    0 -0.42075623035E+01 -0.40317016041E+01 -0.12998873063E+03  0.14328704007E+03  0.60001229678E+02 0.  0.
    9000007    2    3    3    0    0  0.42075623035E+01  0.40317016041E+01 -0.23064142580E+03  0.23838879478E+03  0.59998266494E+02 0.  0.
          5    1    4    4  501    0  0.85165423371E+01  0.24782514316E+01  0.21738698387E+01  0.10270780575E+02  0.47000000000E+01 0.  1.
         -5    1    4    4    0  501 -0.12724104641E+02 -0.65099530357E+01 -0.13216260047E+03  0.13301625950E+03  0.47000000000E+01 0.  1.
         12    1    5    5    0    0 -0.10803328826E+02 -0.24044996801E+02 -0.13613634294E+03  0.13866498352E+03  0.00000000000E+00 0. -1.
        -12    1    5    5    0    0  0.15010891130E+02  0.28076698406E+02 -0.94505082856E+02  0.99723811256E+02  0.00000000000E+00 0. -1.
<mgrwt>
<rscale>  0 0.12498933E+03</rscale>
<asrwt>0</asrwt>
<pdfrwt beam="1">  1       21 0.16188985E-02 0.12498933E+03</pdfrwt>
<pdfrwt beam="2">  1       21 0.57100455E-01 0.12498933E+03</pdfrwt>
<totfact> 0.49293996E+06</totfact>
</mgrwt>
</event>
<event>
 9    1  0.4541185E-002  0.1249986E+03  0.7818608E-02  0.1235072E+00
         21   -1    0    0  503  502  0.00000000000E+00  0.00000000000E+00  0.15623300900E+03  0.15623300900E+03  0.00000000000E+00 0.  1.
         21   -1    0    0  502  503 -0.00000000000E+00 -0.00000000000E+00 -0.25002138933E+02  0.25002138933E+02  0.00000000000E+00 0.  1.
         25    2    1    2    0    0  0.00000000000E+00  0.00000000000E+00  0.13123087007E+03  0.18123514793E+03  0.12499855034E+03 0.  0.
    9000006    2    3    3    0    0  0.71009204642E+01 -0.19089573007E+01  0.42590978651E+02  0.73944710142E+02  0.59998012518E+02 0.  0.
    9000007    2    3    3    0    0 -0.71009204642E+01  0.19089573007E+01  0.88639891416E+02  0.10729043779E+03  0.60001170838E+02 0.  0.
          5    1    4    4  501    0 -0.24409848447E+02 -0.10058421320E+02  0.13423523854E+02  0.29988223243E+02  0.47000000000E+01 0. -1.
         -5    1    4    4    0  501  0.31510768911E+02  0.81494640189E+01  0.29167454797E+02  0.43956486899E+02  0.47000000000E+01 0. -1.
         12    1    5    5    0    0 -0.26149126940E+02  0.17602545786E+02  0.68610800676E+02  0.75505419853E+02  0.00000000000E+00 0.  1.
        -12    1    5    5    0    0  0.19048206476E+02 -0.15693588485E+02  0.20029090740E+02  0.31785017938E+02  0.00000000000E+00 0.  1.
<mgrwt>
<rscale>  0 0.12499855E+03</rscale>
<asrwt>0</asrwt>
<pdfrwt beam="1">  1       21 0.24035847E-01 0.12499855E+03</pdfrwt>
<pdfrwt beam="2">  1       21 0.38464830E-02 0.12499855E+03</pdfrwt>
<totfact> 0.67012590E+06</totfact>
</mgrwt>
</event>
<event>
 9    1  0.4541185E-002  0.1249961E+03  0.7818608E-02  0.1235075E+00
         21   -1    0    0  503  502  0.00000000000E+00  0.00000000000E+00  0.36501500832E+01  0.36501500832E+01  0.00000000000E+00 0. -1.
         21   -1    0    0  502  503 -0.00000000000E+00 -0.00000000000E+00 -0.10700944605E+04  0.10700944605E+04  0.00000000000E+00 0. -1.
         25    2    1    2    0    0  0.17763568394E-14 -0.17763568394E-14 -0.10664443104E+04  0.10737446106E+04  0.12499608608E+03 0.  0.
    9000006    2    3    3    0    0 -0.73955436438E+01 -0.23738783501E+01 -0.66787642730E+03  0.67061104676E+03  0.59999371086E+02 0.  0.
    9000007    2    3    3    0    0  0.73955436438E+01  0.23738783501E+01 -0.39856788310E+03  0.40313356381E+03  0.59999862195E+02 0.  0.
          5    1    4    4  501    0 -0.42758704123E+01  0.95745513272E+01 -0.24103180721E+02  0.26702217544E+02  0.47000000000E+01 0.  1.
         -5    1    4    4    0  501 -0.31196732315E+01 -0.11948429677E+02 -0.64377324658E+03  0.64390882922E+03  0.47000000000E+01 0.  1.
         12    1    5    5    0    0  0.20069145475E+02  0.16182490214E+02 -0.35189160565E+03  0.35283472862E+03  0.00000000000E+00 0. -1.
        -12    1    5    5    0    0 -0.12673601831E+02 -0.13808611864E+02 -0.46676277452E+02  0.50298835193E+02  0.00000000000E+00 0. -1.
<mgrwt>
<rscale>  0 0.12499609E+03</rscale>
<asrwt>0</asrwt>
<pdfrwt beam="1">  1       21 0.56156174E-03 0.12499609E+03</pdfrwt>
<pdfrwt beam="2">  1       21 0.16462986E+00 0.12499609E+03</pdfrwt>
<totfact> 0.21847099E+06</totfact>
</mgrwt>
</event>
<event>
 9    1  0.4541185E-002  0.1249985E+03  0.7818608E-02  0.1235072E+00
         21   -1    0    0  503  502  0.00000000000E+00  0.00000000000E+00  0.99683597745E+02  0.99683597745E+02  0.00000000000E+00 0.  1.
         21   -1    0    0  502  503 -0.00000000000E+00 -0.00000000000E+00 -0.39185524402E+02  0.39185524402E+02  0.00000000000E+00 0.  1.
         25    2    1    2    0    0  0.00000000000E+00  0.00000000000E+00  0.60498073343E+02  0.13886912215E+03  0.12499846482E+03 0.  0.
    9000006    2    3    3    0    0 -0.16417565516E+02  0.29946719659E+01  0.36093324403E+02  0.71980774872E+02  0.59999994726E+02 0.  0.
    9000007    2    3    3    0    0  0.16417565516E+02 -0.29946719659E+01  0.24404748940E+02  0.66888347275E+02  0.59999622605E+02 0.  0.
          5    1    4    4  501    0 -0.10503050766E+02  0.11004785079E+02 -0.13687636491E+02  0.20996684566E+02  0.47000000000E+01 0. -1.
         -5    1    4    4    0  501 -0.59145147491E+01 -0.80101131129E+01  0.49780960895E+02  0.50984090306E+02  0.47000000000E+01 0. -1.
         12    1    5    5    0    0  0.96297707979E+01  0.28388724355E+02  0.14399656407E+02  0.33256612286E+02  0.00000000000E+00 0.  1.
        -12    1    5    5    0    0  0.67877947177E+01 -0.31383396321E+02  0.10005092532E+02  0.33631734989E+02  0.00000000000E+00 0.  1.
<mgrwt>
<rscale>  0 0.12499846E+03</rscale>
<asrwt>0</asrwt>
<pdfrwt beam="1">  1       21 0.15335938E-01 0.12499846E+03</pdfrwt>
<pdfrwt beam="2">  1       21 0.60285423E-02 0.12499846E+03</pdfrwt>
<totfact> 0.72190111E+06</totfact>
</mgrwt>
</event>
<event>
 9    1  0.4541185E-002  0.1249983E+03  0.7818608E-02  0.1235072E+00
         21   -1    0    0  503  502  0.00000000000E+00  0.00000000000E+00  0.53288165288E+02  0.53288165288E+02  0.00000000000E+00 0.  1.
         21   -1    0    0  502  503 -0.00000000000E+00 -0.00000000000E+00 -0.73302282239E+02  0.73302282239E+02  0.00000000000E+00 0.  1.
         25    2    1    2    0    0 -0.35527136788E-14 -0.88817841970E-15 -0.20014116952E+02  0.12659044753E+03  0.12499830610E+03 0.  0.
    9000006    2    3    3    0    0 -0.21934190755E+00 -0.18337241111E+01 -0.27627217990E+02  0.66081163055E+02  0.60000385681E+02 0.  0.
    9000007    2    3    3    0    0  0.21934190755E+00  0.18337241111E+01  0.76131010386E+01  0.60509284471E+02  0.60000029540E+02 0.  0.
          5    1    4    4  501    0 -0.25012149852E+02  0.15104742672E+02 -0.14863478222E+02  0.33117576546E+02  0.47000000000E+01 0. -1.
         -5    1    4    4    0  501  0.24792807944E+02 -0.16938466783E+02 -0.12763739768E+02  0.32963586510E+02  0.47000000000E+01 0. -1.
         12    1    5    5    0    0  0.23639358331E+02  0.92933415549E+01  0.20605515143E+02  0.32707380113E+02  0.00000000000E+00 0. -1.
        -12    1    5    5    0    0 -0.23420016423E+02 -0.74596174438E+01 -0.12992414104E+02  0.27801904358E+02  0.00000000000E+00 0. -1.
<mgrwt>
<rscale>  0 0.12499831E+03</rscale>
<asrwt>0</asrwt>
<pdfrwt beam="1">  1       21 0.81981793E-02 0.12499831E+03</pdfrwt>
<pdfrwt beam="2">  1       21 0.11277274E-01 0.12499831E+03</pdfrwt>
<totfact> 0.73828194E+06</totfact>
</mgrwt>
</event>
<event>
 9    1  0.4541185E-002  0.1249999E+03  0.7818608E-02  0.1235070E+00
         21   -1    0    0  503  502  0.00000000000E+00  0.00000000000E+00  0.51938131387E+03  0.51938131387E+03  0.00000000000E+00 0.  1.
         21   -1    0    0  502  503 -0.00000000000E+00 -0.00000000000E+00 -0.75209501401E+01  0.75209501401E+01  0.00000000000E+00 0.  1.
         25    2    1    2    0    0  0.88817841970E-15  0.35527136788E-14  0.51186036373E+03  0.52690226401E+03  0.12499985545E+03 0.  0.
    9000006    2    3    3    0    0  0.28065455217E+01  0.84711941074E+01  0.19248031358E+03  0.20181254555E+03  0.59999954958E+02 0.  0.
    9000007    2    3    3    0    0 -0.28065455217E+01 -0.84711941074E+01  0.31938005015E+03  0.32508971847E+03  0.60000589935E+02 0.  0.
          5    1    4    4  501    0  0.39872446894E+01  0.31021329106E+02  0.15169539632E+03  0.15495742720E+03  0.47000000000E+01 0.  1.
         -5    1    4    4    0  501 -0.11806991678E+01 -0.22550134998E+02  0.40784917260E+02  0.46855118342E+02  0.47000000000E+01 0.  1.
         12    1    5    5    0    0 -0.69502109105E+01 -0.30691467896E+02  0.10761093502E+03  0.11211772816E+03  0.00000000000E+00 0.  1.
        -12    1    5    5    0    0  0.41436653888E+01  0.22220273789E+02  0.21176911513E+03  0.21297199030E+03  0.00000000000E+00 0.  1.
<mgrwt>
<rscale>  0 0.12499986E+03</rscale>
<asrwt>0</asrwt>
<pdfrwt beam="1">  1       21 0.79904789E-01 0.12499986E+03</pdfrwt>
<pdfrwt beam="2">  1       21 0.11570697E-02 0.12499986E+03</pdfrwt>
<totfact> 0.40621853E+06</totfact>
</mgrwt>
</event>
<event>
 9    1  0.4541185E-002  0.1250045E+03  0.7818608E-02  0.1235062E+00
         21   -1    0    0  503  502  0.00000000000E+00  0.00000000000E+00  0.52545884203E+02  0.52545884203E+02  0.00000000000E+00 0.  1.
         21   -1    0    0  502  503 -0.00000000000E+00 -0.00000000000E+00 -0.74345125694E+02  0.74345125694E+02  0.00000000000E+00 0.  1.
         25    2    1    2    0    0  0.17763568394E-14  0.32751579226E-14 -0.21799241491E+02  0.12689100990E+03  0.12500448577E+03 0.  0.
    9000006    2    3    3    0    0  0.12660626946E+02  0.25080684913E+00 -0.23171697075E+02  0.65553492022E+02  0.59999819935E+02 0.  0.
    9000007    2    3    3    0    0 -0.12660626946E+02 -0.25080684913E+00  0.13724555832E+01  0.61337517875E+02  0.60000442381E+02 0.  0.
          5    1    4    4  501    0  0.22944960821E+01 -0.29095146990E+02 -0.14376052618E+02  0.32871768732E+02  0.47000000000E+01 0. -1.
         -5    1    4    4    0  501  0.10366130864E+02  0.29345953839E+02 -0.87956444561E+01  0.32681723291E+02  0.47000000000E+01 0. -1.
         12    1    5    5    0    0 -0.37534716315E+01 -0.57380967791E+00  0.30572534334E+02  0.30807428689E+02  0.00000000000E+00 0.  1.
        -12    1    5    5    0    0 -0.89071553146E+01  0.32300282878E+00 -0.29200078751E+02  0.30530089186E+02  0.00000000000E+00 0.  1.
<mgrwt>
<rscale>  0 0.12500449E+03</rscale>
<asrwt>0</asrwt>
<pdfrwt beam="1">  1       21 0.80839823E-02 0.12500449E+03</pdfrwt>
<pdfrwt beam="2">  1       21 0.11437712E-01 0.12500449E+03</pdfrwt>
<totfact> 0.73775533E+06</totfact>
</mgrwt>
</event>
<event>
 9    1  0.4541185E-002  0.1249945E+03  0.7818608E-02  0.1235078E+00
         21   -1    0    0  503  502  0.00000000000E+00  0.00000000000E+00  0.11728158959E+03  0.11728158959E+03  0.00000000000E+00 0.  1.
         21   -1    0    0  502  503 -0.00000000000E+00 -0.00000000000E+00 -0.33303662647E+02  0.33303662647E+02  0.00000000000E+00 0.  1.
         25    2    1    2    0    0 -0.35527136788E-14  0.22204460493E-14  0.83977926946E+02  0.15058525224E+03  0.12499450379E+03 0.  0.
    9000006    2    3    3    0    0  0.38197444142E+00 -0.35323880206E+01  0.21359263331E+02  0.63787126158E+02  0.59999630531E+02 0.  0.
    9000007    2    3    3    0    0 -0.38197444142E+00  0.35323880206E+01  0.62618663614E+02  0.86798126081E+02  0.60001616551E+02 0.  0.
          5    1    4    4  501    0  0.22300602452E+02  0.26602248889E-03  0.31541753367E+02  0.38913867390E+02  0.47000000000E+01 0.  1.
         -5    1    4    4    0  501 -0.21918628010E+02 -0.35326540431E+01 -0.10182490035E+02  0.24873258768E+02  0.47000000000E+01 0.  1.
         12    1    5    5    0    0  0.15097767349E+02  0.21512807674E+02  0.83611558601E+01  0.27579927489E+02  0.00000000000E+00 0. -1.
        -12    1    5    5    0    0 -0.15479741791E+02 -0.17980419654E+02  0.54257507754E+02  0.59218198592E+02  0.00000000000E+00 0. -1.
<mgrwt>
<rscale>  0 0.12499450E+03</rscale>
<asrwt>0</asrwt>
<pdfrwt beam="1">  1       21 0.18043321E-01 0.12499450E+03</pdfrwt>
<pdfrwt beam="2">  1       21 0.51236405E-02 0.12499450E+03</pdfrwt>
<totfact> 0.70695650E+06</totfact>
</mgrwt>
</event>
<event>
 9    1  0.4541185E-002  0.1250028E+03  0.7818608E-02  0.1235065E+00
         21   -1    0    0  503  502  0.00000000000E+00  0.00000000000E+00  0.46872999246E+01  0.46872999246E+01  0.00000000000E+00 0.  1.
         21   -1    0    0  502  503 -0.00000000000E+00 -0.00000000000E+00 -0.83340559166E+03  0.83340559166E+03  0.00000000000E+00 0.  1.
         25    2    1    2    0    0 -0.35527136788E-14  0.17763568394E-14 -0.82871829173E+03  0.83809289158E+03  0.12500275144E+03 0.  0.
    9000006    2    3    3    0    0  0.11022068976E+02  0.96306483858E+01 -0.34998302801E+03  0.35539043040E+03  0.60000022766E+02 0.  0.
    9000007    2    3    3    0    0 -0.11022068976E+02 -0.96306483858E+01 -0.47873526372E+03  0.48270246118E+03  0.59999815889E+02 0.  0.
          5    1    4    4  501    0 -0.22325051923E+02  0.85649672193E+01 -0.90291710944E+02  0.93522455443E+02  0.47000000000E+01 0.  1.
         -5    1    4    4    0  501  0.33347120899E+02  0.10656811664E+01 -0.25969131707E+03  0.26186797496E+03  0.47000000000E+01 0.  1.
         12    1    5    5    0    0  0.53957306801E+01 -0.36545911229E+01 -0.44175029172E+03  0.44179835918E+03  0.00000000000E+00 0.  1.
        -12    1    5    5    0    0 -0.16417799656E+02 -0.59760572629E+01 -0.36984972001E+02  0.40904101994E+02  0.00000000000E+00 0.  1.
<mgrwt>
<rscale>  0 0.12500275E+03</rscale>
<asrwt>0</asrwt>
<pdfrwt beam="1">  1       21 0.72112329E-03 0.12500275E+03</pdfrwt>
<pdfrwt beam="2">  1       21 0.12821620E+00 0.12500275E+03</pdfrwt>
<totfact> 0.28137076E+06</totfact>
</mgrwt>
</event>
<event>
 9    1  0.4541185E-002  0.1249987E+03  0.7818608E-02  0.1235071E+00
         21   -1    0    0  503  502  0.00000000000E+00  0.00000000000E+00  0.56098848774E+02  0.56098848774E+02  0.00000000000E+00 0. -1.
         21   -1    0    0  502  503 -0.00000000000E+00 -0.00000000000E+00 -0.69630155171E+02  0.69630155171E+02  0.00000000000E+00 0. -1.
         25    2    1    2    0    0  0.17763568394E-14  0.00000000000E+00 -0.13531306397E+02  0.12572900395E+03  0.12499874472E+03 0.  0.
    9000006    2    3    3    0    0 -0.67340189070E+01  0.94133468893E+01  0.64472553822E+01  0.61440665793E+02  0.59995251485E+02 0.  0.
    9000007    2    3    3    0    0  0.67340189070E+01 -0.94133468893E+01 -0.19978561779E+02  0.64288338153E+02  0.59999078171E+02 0.  0.
          5    1    4    4  501    0 -0.18653547512E+02  0.74555945561E+01 -0.22011999556E+02  0.30168839047E+02  0.47000000000E+01 0.  1.
         -5    1    4    4    0  501  0.11919528605E+02  0.19577523331E+01  0.28459254938E+02  0.31271826746E+02  0.47000000000E+01 0.  1.
         12    1    5    5    0    0  0.42232352722E+00  0.23234438663E+02  0.36127776984E+01  0.23517433105E+02  0.00000000000E+00 0. -1.
        -12    1    5    5    0    0  0.63116953798E+01 -0.32647785553E+02 -0.23591339478E+02  0.40770905048E+02  0.00000000000E+00 0. -1.
<mgrwt>
<rscale>  0 0.12499874E+03</rscale>
<asrwt>0</asrwt>
<pdfrwt beam="1">  1       21 0.86305922E-02 0.12499874E+03</pdfrwt>
<pdfrwt beam="2">  1       21 0.10712332E-01 0.12499874E+03</pdfrwt>
<totfact> 0.73945879E+06</totfact>
</mgrwt>
</event>
<event>
 9    1  0.4541185E-002  0.1249946E+03  0.7818608E-02  0.1235078E+00
         21   -1    0    0  503  502  0.00000000000E+00  0.00000000000E+00  0.43646383140E+02  0.43646383140E+02  0.00000000000E+00 0.  1.
         21   -1    0    0  502  503 -0.00000000000E+00 -0.00000000000E+00 -0.89489876948E+02  0.89489876948E+02  0.00000000000E+00 0.  1.
         25    2    1    2    0    0  0.00000000000E+00  0.00000000000E+00 -0.45843493809E+02  0.13313626009E+03  0.12499455118E+03 0.  0.
    9000006    2    3    3    0    0  0.14310116246E+02  0.78657220579E+01 -0.29594034217E+02  0.68865701491E+02  0.60000241418E+02 0.  0.
    9000007    2    3    3    0    0 -0.14310116246E+02 -0.78657220579E+01 -0.16249459592E+02  0.64270558597E+02  0.60000089623E+02 0.  0.
          5    1    4    4  501    0  0.13350036021E+02  0.31008659872E+02 -0.29731149010E+02  0.45230428588E+02  0.47000000000E+01 0.  1.
         -5    1    4    4    0  501  0.96008022551E+00 -0.23142937815E+02  0.13711479316E+00  0.23635272903E+02  0.47000000000E+01 0.  1.
         12    1    5    5    0    0 -0.29003293219E+02  0.13288962151E+02  0.31034858139E+01  0.32053379803E+02  0.00000000000E+00 0.  1.
        -12    1    5    5    0    0  0.14693176973E+02 -0.21154684209E+02 -0.19352945406E+02  0.32217178794E+02  0.00000000000E+00 0.  1.
<mgrwt>
<rscale>  0 0.12499455E+03</rscale>
<asrwt>0</asrwt>
<pdfrwt beam="1">  1       21 0.67148283E-02 0.12499455E+03</pdfrwt>
<pdfrwt beam="2">  1       21 0.13767673E-01 0.12499455E+03</pdfrwt>
<totfact> 0.72954348E+06</totfact>
</mgrwt>
</event>
<event>
 9    1  0.4541185E-002  0.1250058E+03  0.7818608E-02  0.1235060E+00
         21   -1    0    0  503  502  0.00000000000E+00  0.00000000000E+00  0.18974237023E+03  0.18974237023E+03  0.00000000000E+00 0.  1.
         21   -1    0    0  502  503 -0.00000000000E+00 -0.00000000000E+00 -0.20589050773E+02  0.20589050773E+02  0.00000000000E+00 0.  1.
         25    2    1    2    0    0 -0.88817841970E-15  0.22204460493E-14  0.16915331946E+03  0.21033142100E+03  0.12500584457E+03 0.  0.
    9000006    2    3    3    0    0 -0.37186090178E+01 -0.11398213173E+01  0.55849376307E+02  0.82062434862E+02  0.59999692799E+02 0.  0.
    9000007    2    3    3    0    0  0.37186090178E+01  0.11398213173E+01  0.11330394315E+03  0.12826898614E+03  0.60000183554E+02 0.  0.
          5    1    4    4  501    0 -0.60789298103E+01  0.24759975552E+02  0.75443360550E+01  0.27000310803E+02  0.47000000000E+01 0. -1.
         -5    1    4    4    0  501  0.23603207924E+01 -0.25899796869E+02  0.48305040252E+02  0.55062124059E+02  0.47000000000E+01 0. -1.
         12    1    5    5    0    0 -0.27391636291E+02 -0.37232079167E+01  0.41496472032E+02  0.49861018913E+02  0.00000000000E+00 0.  1.
        -12    1    5    5    0    0  0.31110245309E+02  0.48630292341E+01  0.71807471120E+02  0.78407967230E+02  0.00000000000E+00 0.  1.
<mgrwt>
<rscale>  0 0.12500584E+03</rscale>
<asrwt>0</asrwt>
<pdfrwt beam="1">  1       21 0.29191133E-01 0.12500584E+03</pdfrwt>
<pdfrwt beam="2">  1       21 0.31675464E-02 0.12500584E+03</pdfrwt>
<totfact> 0.63815249E+06</totfact>
</mgrwt>
</event>
<event>
 9    1  0.4541185E-002  0.1249995E+03  0.7818608E-02  0.1235070E+00
         21   -1    0    0  503  502  0.00000000000E+00  0.00000000000E+00  0.17005887517E+02  0.17005887517E+02  0.00000000000E+00 0. -1.
         21   -1    0    0  502  503 -0.00000000000E+00 -0.00000000000E+00 -0.22969788153E+03  0.22969788153E+03  0.00000000000E+00 0. -1.
         25    2    1    2    0    0  0.00000000000E+00  0.00000000000E+00 -0.21269199401E+03  0.24670376905E+03  0.12499946138E+03 0.  0.
    9000006    2    3    3    0    0  0.18742148370E+01 -0.16902546232E+02 -0.98209252843E+02  0.11633658849E+03  0.59999464388E+02 0.  0.
    9000007    2    3    3    0    0 -0.18742148370E+01  0.16902546232E+02 -0.11448274117E+03  0.13036718056E+03  0.60000791581E+02 0.  0.
          5    1    4    4  501    0 -0.13054535818E+02 -0.19559393940E+02 -0.97543001815E+02  0.10044758832E+03  0.47000000000E+01 0.  1.
         -5    1    4    4    0  501  0.14928750655E+02  0.26568477081E+01 -0.66625102828E+00  0.15889000167E+02  0.47000000000E+01 0.  1.
         12    1    5    5    0    0 -0.27802610414E+02 -0.31973000971E+01 -0.67425918309E+02  0.73003166599E+02  0.00000000000E+00 0. -1.
        -12    1    5    5    0    0  0.25928395577E+02  0.20099846329E+02 -0.47056822862E+02  0.57364013959E+02  0.00000000000E+00 0. -1.
<mgrwt>
<rscale>  0 0.12499946E+03</rscale>
<asrwt>0</asrwt>
<pdfrwt beam="1">  1       21 0.26162907E-02 0.12499946E+03</pdfrwt>
<pdfrwt beam="2">  1       21 0.35338132E-01 0.12499946E+03</pdfrwt>
<totfact> 0.60190739E+06</totfact>
</mgrwt>
</event>
<event>
 9    1  0.4541185E-002  0.1250142E+03  0.7818608E-02  0.1235047E+00
         21   -1    0    0  503  502  0.00000000000E+00  0.00000000000E+00  0.59267581035E+01  0.59267581035E+01  0.00000000000E+00 0.  1.
         21   -1    0    0  502  503 -0.00000000000E+00 -0.00000000000E+00 -0.65923669613E+03  0.65923669613E+03  0.00000000000E+00 0.  1.
         25    2    1    2    0    0  0.17763568394E-14  0.00000000000E+00 -0.65330993802E+03  0.66516345423E+03  0.12501418209E+03 0.  0.
    9000006    2    3    3    0    0  0.58015686100E+01  0.61350746828E+01 -0.24494587686E+03  0.25232863838E+03  0.59999681822E+02 0.  0.
    9000007    2    3    3    0    0 -0.58015686100E+01 -0.61350746828E+01 -0.40836406117E+03  0.41283481585E+03  0.60000678202E+02 0.  0.
          5    1    4    4  501    0  0.78646880100E+01  0.31059045388E+02 -0.17326023911E+03  0.17626037012E+03  0.47000000000E+01 0.  1.
         -5    1    4    4    0  501 -0.20631194000E+01 -0.24923970705E+02 -0.71685637746E+02  0.76068268262E+02  0.47000000000E+01 0.  1.
         12    1    5    5    0    0  0.21550184101E+02  0.69282365493E+01 -0.82028389013E+02  0.85094462221E+02  0.00000000000E+00 0.  1.
        -12    1    5    5    0    0 -0.27351752711E+02 -0.13063311232E+02 -0.32633567215E+03  0.32774035363E+03  0.00000000000E+00 0.  1.
<mgrwt>
<rscale>  0 0.12501418E+03</rscale>
<asrwt>0</asrwt>
<pdfrwt beam="1">  1       21 0.91180945E-03 0.12501418E+03</pdfrwt>
<pdfrwt beam="2">  1       21 0.10142097E+00 0.12501418E+03</pdfrwt>
<totfact> 0.34284847E+06</totfact>
</mgrwt>
</event>
<event>
 9    1  0.4541185E-002  0.1249980E+03  0.7818608E-02  0.1235072E+00
         21   -1    0    0  503  502  0.00000000000E+00  0.00000000000E+00  0.57548853307E+03  0.57548853307E+03  0.00000000000E+00 0. -1.
         21   -1    0    0  502  503 -0.00000000000E+00 -0.00000000000E+00 -0.67874977959E+01  0.67874977959E+01  0.00000000000E+00 0. -1.
         25    2    1    2    0    0  0.17763568394E-14  0.00000000000E+00  0.56870103527E+03  0.58227603087E+03  0.12499803438E+03 0.  0.
    9000006    2    3    3    0    0  0.11152366806E+02 -0.11971104958E+02  0.31323117385E+03  0.31934530222E+03  0.59999759519E+02 0.  0.
    9000007    2    3    3    0    0 -0.11152366806E+02  0.11971104958E+02  0.25546986143E+03  0.26293072864E+03  0.60000294403E+02 0.  0.
          5    1    4    4  501    0  0.20625899662E+02 -0.23090028731E+02  0.28881320586E+03  0.29050599829E+03  0.47000000000E+01 0.  1.
         -5    1    4    4    0  501 -0.94735328565E+01  0.11118923773E+02  0.24417967992E+02  0.28839303936E+02  0.47000000000E+01 0.  1.
         12    1    5    5    0    0  0.90114094712E+01  0.19812549207E+02  0.22208245532E+03  0.22314649800E+03  0.00000000000E+00 0.  1.
        -12    1    5    5    0    0 -0.20163776277E+02 -0.78414442491E+01  0.33387406102E+02  0.39784230643E+02  0.00000000000E+00 0.  1.
<mgrwt>
<rscale>  0 0.12499803E+03</rscale>
<asrwt>0</asrwt>
<pdfrwt beam="1">  1       21 0.88536659E-01 0.12499803E+03</pdfrwt>
<pdfrwt beam="2">  1       21 0.10442309E-02 0.12499803E+03</pdfrwt>
<totfact> 0.37908503E+06</totfact>
</mgrwt>
</event>
<event>
 9    1  0.4541185E-002  0.1250003E+03  0.7818608E-02  0.1235069E+00
         21   -1    0    0  503  502  0.00000000000E+00  0.00000000000E+00  0.19244073494E+03  0.19244073494E+03  0.00000000000E+00 0.  1.
         21   -1    0    0  502  503 -0.00000000000E+00 -0.00000000000E+00 -0.20298555076E+02  0.20298555076E+02  0.00000000000E+00 0.  1.
         25    2    1    2    0    0  0.00000000000E+00  0.00000000000E+00  0.17214217986E+03  0.21273929001E+03  0.12500030171E+03 0.  0.
    9000006    2    3    3    0    0 -0.99606662818E+01  0.91642837311E+01  0.67195415596E+02  0.91096157857E+02  0.60000726079E+02 0.  0.
    9000007    2    3    3    0    0  0.99606662818E+01 -0.91642837311E+01  0.10494676426E+03  0.12164313216E+03  0.60000244184E+02 0.  0.
          5    1    4    4  501    0  0.75668874918E+01  0.23455270547E+02  0.62741640259E+02  0.67572264467E+02  0.47000000000E+01 0.  1.
         -5    1    4    4    0  501 -0.17527553774E+02 -0.14290986816E+02  0.44537753368E+01  0.23523893390E+02  0.47000000000E+01 0.  1.
         12    1    5    5    0    0 -0.16648255575E+02  0.17273248837E+02  0.39981101830E+02  0.46626366388E+02  0.00000000000E+00 0.  1.
        -12    1    5    5    0    0  0.26608921857E+02 -0.26437532568E+02  0.64965662435E+02  0.75016765768E+02  0.00000000000E+00 0.  1.
<mgrwt>
<rscale>  0 0.12500030E+03</rscale>
<asrwt>0</asrwt>
<pdfrwt beam="1">  1       21 0.29606266E-01 0.12500030E+03</pdfrwt>
<pdfrwt beam="2">  1       21 0.31228548E-02 0.12500030E+03</pdfrwt>
<totfact> 0.63571994E+06</totfact>
</mgrwt>
</event>
<event>
 9    1  0.4541185E-002  0.1250008E+03  0.7818608E-02  0.1235068E+00
         21   -1    0    0  503  502  0.00000000000E+00  0.00000000000E+00  0.50648631410E+03  0.50648631410E+03  0.00000000000E+00 0. -1.
         21   -1    0    0  502  503 -0.00000000000E+00 -0.00000000000E+00 -0.77125462061E+01  0.77125462061E+01  0.00000000000E+00 0. -1.
         25    2    1    2    0    0  0.35527136788E-14  0.17763568394E-14  0.49877376789E+03  0.51419886031E+03  0.12500078560E+03 0.  0.
    9000006    2    3    3    0    0  0.88470570455E+01  0.13542996102E+01  0.18749888066E+03  0.19706795279E+03  0.59998693485E+02 0.  0.
    9000007    2    3    3    0    0 -0.88470570455E+01 -0.13542996102E+01  0.31127488723E+03  0.31713090752E+03  0.59998771135E+02 0.  0.
          5    1    4    4  501    0 -0.22997855389E+02  0.12057973428E+02  0.92670972672E+02  0.96355047878E+02  0.47000000000E+01 0.  1.
         -5    1    4    4    0  501  0.31844912434E+02 -0.10703673818E+02  0.94827907990E+02  0.10071290491E+03  0.47000000000E+01 0.  1.
         12    1    5    5    0    0  0.66644322911E+01 -0.22956922273E+02  0.62120593228E+02  0.66561272831E+02  0.00000000000E+00 0.  1.
        -12    1    5    5    0    0 -0.15511489337E+02  0.21602622662E+02  0.24915429400E+03  0.25056963469E+03  0.00000000000E+00 0.  1.
<mgrwt>
<rscale>  0 0.12500079E+03</rscale>
<asrwt>0</asrwt>
<pdfrwt beam="1">  1       21 0.77920945E-01 0.12500079E+03</pdfrwt>
<pdfrwt beam="2">  1       21 0.11865460E-02 0.12500079E+03</pdfrwt>
<totfact> 0.41283558E+06</totfact>
</mgrwt>
</event>
<event>
 9    1  0.4541185E-002  0.1249999E+03  0.7818608E-02  0.1235069E+00
         21   -1    0    0  503  502  0.00000000000E+00  0.00000000000E+00  0.29850797949E+01  0.29850797949E+01  0.00000000000E+00 0.  1.
         21   -1    0    0  502  503 -0.00000000000E+00 -0.00000000000E+00 -0.13085897979E+04  0.13085897979E+04  0.00000000000E+00 0.  1.
         25    2    1    2    0    0  0.00000000000E+00  0.00000000000E+00 -0.13056047181E+04  0.13115748777E+04  0.12499991945E+03 0.  0.
    9000006    2    3    3    0    0  0.35759465148E+01 -0.16201901329E+02 -0.71117799337E+03  0.71389737043E+03  0.60000235476E+02 0.  0.
    9000007    2    3    3    0    0 -0.35759465148E+01  0.16201901329E+02 -0.59442672478E+03  0.59767750731E+03  0.59999855064E+02 0.  0.
          5    1    4    4  501    0  0.12148698057E+02 -0.88780064839E+01 -0.68304343001E+03  0.68322531213E+03  0.47000000000E+01 0. -1.
         -5    1    4    4    0  501 -0.85727515427E+01 -0.73238948454E+01 -0.28134563362E+02  0.30672058299E+02  0.47000000000E+01 0. -1.
         12    1    5    5    0    0  0.20517870577E+02 -0.12254063925E+02 -0.18059064054E+03  0.18216510244E+03  0.00000000000E+00 0.  1.
        -12    1    5    5    0    0 -0.24093817091E+02  0.28455965255E+02 -0.41383608424E+03  0.41551240487E+03  0.00000000000E+00 0.  1.
<mgrwt>
<rscale>  0 0.12499992E+03</rscale>
<asrwt>0</asrwt>
<pdfrwt beam="1">  1       21 0.45924341E-03 0.12499992E+03</pdfrwt>
<pdfrwt beam="2">  1       21 0.20132135E+00 0.12499992E+03</pdfrwt>
<totfact> 0.17045833E+06</totfact>
</mgrwt>
</event>
<event>
 9    1  0.4541185E-002  0.1250075E+03  0.7818608E-02  0.1235058E+00
         21   -1    0    0  503  502  0.00000000000E+00  0.00000000000E+00  0.26391888943E+03  0.26391888943E+03  0.00000000000E+00 0.  1.
         21   -1    0    0  502  503 -0.00000000000E+00 -0.00000000000E+00 -0.14802731983E+02  0.14802731983E+02  0.00000000000E+00 0.  1.
         25    2    1    2    0    0  0.00000000000E+00  0.17763568394E-14  0.24911615744E+03  0.27872162141E+03  0.12500752914E+03 0.  0.
    9000006    2    3    3    0    0  0.12805575702E+01 -0.78196339935E+01  0.89740476715E+02  0.10824130168E+03  0.60000331037E+02 0.  0.
    9000007    2    3    3    0    0 -0.12805575702E+01  0.78196339935E+01  0.15937568073E+03  0.17048031973E+03  0.60001210858E+02 0.  0.
          5    1    4    4  501    0  0.18692151186E+02 -0.21956835432E+02  0.76236225162E+02  0.81642826783E+02  0.47000000000E+01 0. -1.
         -5    1    4    4    0  501 -0.17411593616E+02  0.14137201438E+02  0.13504251553E+02  0.26598474896E+02  0.47000000000E+01 0. -1.
         12    1    5    5    0    0  0.18926424483E+02 -0.10300740650E+02  0.12417545485E+03  0.12603118023E+03  0.00000000000E+00 0.  1.
        -12    1    5    5    0    0 -0.20206982053E+02  0.18120374644E+02  0.35200225877E+02  0.44449139505E+02  0.00000000000E+00 0.  1.
<mgrwt>
<rscale>  0 0.12500753E+03</rscale>
<asrwt>0</asrwt>
<pdfrwt beam="1">  1       21 0.40602903E-01 0.12500753E+03</pdfrwt>
<pdfrwt beam="2">  1       21 0.22773436E-02 0.12500753E+03</pdfrwt>
<totfact> 0.57261339E+06</totfact>
</mgrwt>
</event>
<event>
 9    1  0.4541185E-002  0.1249988E+03  0.7818608E-02  0.1235071E+00
         21   -1    0    0  503  502  0.00000000000E+00  0.00000000000E+00  0.15228155019E+04  0.15228155019E+04  0.00000000000E+00 0. -1.
         21   -1    0    0  502  503 -0.00000000000E+00 -0.00000000000E+00 -0.25651018909E+01  0.25651018909E+01  0.00000000000E+00 0. -1.
         25    2    1    2    0    0 -0.17763568394E-14  0.00000000000E+00  0.15202504000E+04  0.15253806038E+04  0.12499883077E+03 0.  0.
    9000006    2    3    3    0    0 -0.12021642527E+02  0.12601289373E+02  0.78065037982E+03  0.78314642512E+03  0.59999960717E+02 0.  0.
    9000007    2    3    3    0    0  0.12021642527E+02 -0.12601289373E+02  0.73960002019E+03  0.74223417866E+03  0.60000614471E+02 0.  0.
          5    1    4    4  501    0  0.14845361179E+02  0.11790214323E+02  0.61128622903E+03  0.61159818321E+03  0.47000000000E+01 0. -1.
         -5    1    4    4    0  501 -0.26867003707E+02  0.81107504984E+00  0.16936415079E+03  0.17154824191E+03  0.47000000000E+01 0. -1.
         12    1    5    5    0    0  0.34552403745E+02 -0.16946764445E+02  0.39471519601E+03  0.39658687244E+03  0.00000000000E+00 0.  1.
        -12    1    5    5    0    0 -0.22530761217E+02  0.43454750723E+01  0.34488482418E+03  0.34564730623E+03  0.00000000000E+00 0.  1.
<mgrwt>
<rscale>  0 0.12499883E+03</rscale>
<asrwt>0</asrwt>
<pdfrwt beam="1">  1       21 0.23427859E+00 0.12499883E+03</pdfrwt>
<pdfrwt beam="2">  1       21 0.39463228E-03 0.12499883E+03</pdfrwt>
<totfact> 0.13621084E+06</totfact>
</mgrwt>
</event>
<event>
 9    1  0.4541185E-002  0.1250025E+03  0.7818608E-02  0.1235065E+00
         21   -1    0    0  503  502  0.00000000000E+00  0.00000000000E+00  0.16517933353E+03  0.16517933353E+03  0.00000000000E+00 0.  1.
         21   -1    0    0  502  503 -0.00000000000E+00 -0.00000000000E+00 -0.23649493201E+02  0.23649493201E+02  0.00000000000E+00 0.  1.
         25    2    1    2    0    0  0.00000000000E+00  0.00000000000E+00  0.14152984033E+03  0.18882882673E+03  0.12500252038E+03 0.  0.
    9000006    2    3    3    0    0 -0.74020678983E+01 -0.15716977491E+02  0.74023427767E+02  0.96856764766E+02  0.59999591931E+02 0.  0.
    9000007    2    3    3    0    0  0.74020678983E+01  0.15716977491E+02  0.67506412563E+02  0.91972061967E+02  0.59999420453E+02 0.  0.
          5    1    4    4  501    0  0.22165181919E+02 -0.19657992589E+02  0.23959919977E+02  0.38391401738E+02  0.47000000000E+01 0.  1.
         -5    1    4    4    0  501 -0.29567249817E+02  0.39410150982E+01  0.50063507790E+02  0.58465363028E+02  0.47000000000E+01 0.  1.
         12    1    5    5    0    0  0.31779646161E+02  0.85060453962E+01  0.21173171166E+02  0.39122907556E+02  0.00000000000E+00 0.  1.
        -12    1    5    5    0    0 -0.24377578263E+02  0.72109320943E+01  0.46333241397E+02  0.52849154411E+02  0.00000000000E+00 0.  1.
<mgrwt>
<rscale>  0 0.12500252E+03</rscale>
<asrwt>0</asrwt>
<pdfrwt beam="1">  1       21 0.25412204E-01 0.12500252E+03</pdfrwt>
<pdfrwt beam="2">  1       21 0.36383837E-02 0.12500252E+03</pdfrwt>
<totfact> 0.66148641E+06</totfact>
</mgrwt>
</event>
<event>
 9    1  0.4541185E-002  0.1249989E+03  0.7818608E-02  0.1235071E+00
         21   -1    0    0  503  502  0.00000000000E+00  0.00000000000E+00  0.88642739918E+01  0.88642739918E+01  0.00000000000E+00 0.  1.
         21   -1    0    0  502  503 -0.00000000000E+00 -0.00000000000E+00 -0.44066595870E+03  0.44066595870E+03  0.00000000000E+00 0.  1.
         25    2    1    2    0    0  0.00000000000E+00  0.17763568394E-14 -0.43180168471E+03  0.44953023269E+03  0.12499894074E+03 0.  0.
    9000006    2    3    3    0    0  0.38585144111E+01 -0.80509822724E+01 -0.16175492219E+03  0.17275518680E+03  0.59999943871E+02 0.  0.
    9000007    2    3    3    0    0 -0.38585144111E+01  0.80509822724E+01 -0.27004676251E+03  0.27677504589E+03  0.59995546776E+02 0.  0.
          5    1    4    4  501    0 -0.22917067533E+02 -0.15806150366E+02 -0.11226078891E+03  0.11575664603E+03  0.47000000000E+01 0. -1.
         -5    1    4    4    0  501  0.26775581944E+02  0.77551680938E+01 -0.49494133279E+02  0.56998540768E+02  0.47000000000E+01 0. -1.
         12    1    5    5    0    0  0.22301980574E+02  0.13489673146E+02 -0.65578959237E+02  0.70568757348E+02  0.00000000000E+00 0. -1.
        -12    1    5    5    0    0 -0.26160494985E+02 -0.54386908735E+01 -0.20446780328E+03  0.20620628854E+03  0.00000000000E+00 0. -1.
<mgrwt>
<rscale>  0 0.12499894E+03</rscale>
<asrwt>0</asrwt>
<pdfrwt beam="1">  1       21 0.13637343E-02 0.12499894E+03</pdfrwt>
<pdfrwt beam="2">  1       21 0.67794771E-01 0.12499894E+03</pdfrwt>
<totfact> 0.44921576E+06</totfact>
</mgrwt>
</event>
<event>
 9    1  0.4541185E-002  0.1250047E+03  0.7818608E-02  0.1235062E+00
         21   -1    0    0  503  502  0.00000000000E+00  0.00000000000E+00  0.81577672412E+03  0.81577672412E+03  0.00000000000E+00 0.  1.
         21   -1    0    0  502  503 -0.00000000000E+00 -0.00000000000E+00 -0.47887449163E+01  0.47887449163E+01  0.00000000000E+00 0.  1.
         25    2    1    2    0    0  0.17763568394E-14  0.00000000000E+00  0.81098797920E+03  0.82056546903E+03  0.12500474616E+03 0.  0.
    9000006    2    3    3    0    0 -0.46635612882E+01 -0.10626467165E+02  0.49154801307E+03  0.49533236236E+03  0.60000245333E+02 0.  0.
    9000007    2    3    3    0    0  0.46635612882E+01  0.10626467165E+02  0.31943996613E+03  0.32523310668E+03  0.60000092553E+02 0.  0.
          5    1    4    4  501    0 -0.10803882706E+02  0.45284550563E+00  0.17556206756E+02  0.21148034099E+02  0.47000000000E+01 0. -1.
         -5    1    4    4    0  501  0.61403214175E+01 -0.11079312671E+02  0.47399180631E+03  0.47418432826E+03  0.47000000000E+01 0. -1.
         12    1    5    5    0    0 -0.15826649165E+01 -0.23056579066E+02  0.77269597716E+02  0.80651729043E+02  0.00000000000E+00 0. -1.
        -12    1    5    5    0    0  0.62462262047E+01  0.33683046231E+02  0.24217036842E+03  0.24458137763E+03  0.00000000000E+00 0. -1.
<mgrwt>
<rscale>  0 0.12500475E+03</rscale>
<asrwt>0</asrwt>
<pdfrwt beam="1">  1       21 0.12550400E+00 0.12500475E+03</pdfrwt>
<pdfrwt beam="2">  1       21 0.73673064E-03 0.12500475E+03</pdfrwt>
<totfact> 0.28689326E+06</totfact>
</mgrwt>
</event>
<event>
 9    1  0.4541185E-002  0.1250047E+03  0.7818608E-02  0.1235062E+00
         21   -1    0    0  503  502  0.00000000000E+00  0.00000000000E+00  0.71106320696E+01  0.71106320696E+01  0.00000000000E+00 0. -1.
         21   -1    0    0  502  503 -0.00000000000E+00 -0.00000000000E+00 -0.54939445055E+03  0.54939445055E+03  0.00000000000E+00 0. -1.
         25    2    1    2    0    0  0.88817841970E-15  0.17763568394E-14 -0.54228381848E+03  0.55650508262E+03  0.12500466870E+03 0.  0.
    9000006    2    3    3    0    0 -0.75295934613E+00  0.14301786485E+02 -0.22633176891E+03  0.23458751911E+03  0.60001053828E+02 0.  0.
    9000007    2    3    3    0    0  0.75295934613E+00 -0.14301786485E+02 -0.31595204958E+03  0.32191756352E+03  0.60000933516E+02 0.  0.
          5    1    4    4  501    0 -0.27346643127E+02 -0.46207249381E+01 -0.88342376628E+02  0.92712758008E+02  0.47000000000E+01 0.  1.
         -5    1    4    4    0  501  0.26593683781E+02  0.18922511423E+02 -0.13798939228E+03  0.14187476110E+03  0.47000000000E+01 0.  1.
         12    1    5    5    0    0 -0.27621134226E+01  0.11985789122E+02 -0.25677192353E+03  0.25706635160E+03  0.00000000000E+00 0. -1.
        -12    1    5    5    0    0  0.35150727688E+01 -0.26287575608E+02 -0.59180126046E+02  0.64851211914E+02  0.00000000000E+00 0. -1.
<mgrwt>
<rscale>  0 0.12500467E+03</rscale>
<asrwt>0</asrwt>
<pdfrwt beam="1">  1       21 0.10939433E-02 0.12500467E+03</pdfrwt>
<pdfrwt beam="2">  1       21 0.84522233E-01 0.12500467E+03</pdfrwt>
<totfact> 0.39131992E+06</totfact>
</mgrwt>
</event>
<event>
 9    1  0.4541185E-002  0.1250002E+03  0.7818608E-02  0.1235069E+00
         21   -1    0    0  503  502  0.00000000000E+00  0.00000000000E+00  0.64321447036E+02  0.64321447036E+02  0.00000000000E+00 0. -1.
         21   -1    0    0  502  503 -0.00000000000E+00 -0.00000000000E+00 -0.60730320376E+02  0.60730320376E+02  0.00000000000E+00 0. -1.
         25    2    1    2    0    0 -0.88817841970E-15  0.00000000000E+00  0.35911266605E+01  0.12505176741E+03  0.12500019337E+03 0.  0.
    9000006    2    3    3    0    0  0.69363187483E+01  0.15632079059E+02 -0.19314517586E+01  0.62419295999E+02  0.59999696612E+02 0.  0.
    9000007    2    3    3    0    0 -0.69363187483E+01 -0.15632079059E+02  0.55225784191E+01  0.62632471414E+02  0.59998776567E+02 0.  0.
          5    1    4    4  501    0  0.15463405132E+02 -0.25917372442E+01 -0.25984569176E+02  0.30710288756E+02  0.47000000000E+01 0. -1.
         -5    1    4    4    0  501 -0.85270863833E+01  0.18223816303E+02  0.24053117417E+02  0.31709007243E+02  0.47000000000E+01 0. -1.
         12    1    5    5    0    0 -0.13878999973E+02 -0.19411546453E+01  0.30357624290E+02  0.33436209028E+02  0.00000000000E+00 0. -1.
        -12    1    5    5    0    0  0.69426812252E+01 -0.13690924414E+02 -0.24835045871E+02  0.29196262386E+02  0.00000000000E+00 0. -1.
<mgrwt>
<rscale>  0 0.12500019E+03</rscale>
<asrwt>0</asrwt>
<pdfrwt beam="1">  1       21 0.98956073E-02 0.12500019E+03</pdfrwt>
<pdfrwt beam="2">  1       21 0.93431262E-02 0.12500019E+03</pdfrwt>
<totfact> 0.74036223E+06</totfact>
</mgrwt>
</event>
<event>
 8    1  0.4541185E-002  0.1251672E+03  0.7818608E-02  0.1234808E+00
         21   -1    0    0  503  502  0.00000000000E+00  0.00000000000E+00  0.18168115172E+04  0.18168115172E+04  0.00000000000E+00 0.  1.
         21   -1    0    0  502  503 -0.00000000000E+00 -0.00000000000E+00 -0.21558147489E+01  0.21558147489E+01  0.00000000000E+00 0.  1.
    9000006    2    1    2    0    0 -0.52577345318E+00  0.17532421962E+02  0.95100067475E+03  0.95305301860E+03  0.60000921946E+02 0.  0.
    9000007    2    1    2    0    0  0.52577345318E+00 -0.17532421962E+02  0.86365502770E+03  0.86591431334E+03  0.59999407725E+02 0.  0.
          5    1    3    3  501    0 -0.25499657260E+02 -0.73450790433E+01  0.40816403480E+03  0.40905274966E+03  0.47000000000E+01 0.  1.
         -5    1    3    3    0  501  0.24973883807E+02  0.24877501005E+02  0.54283663995E+03  0.54400026893E+03  0.47000000000E+01 0.  1.
         12    1    4    4    0    0  0.14150961161E+02  0.73732040347E+01  0.66995223852E+03  0.67014223545E+03  0.00000000000E+00 0.  1.
        -12    1    4    4    0    0 -0.13625187708E+02 -0.24905625996E+02  0.19370278918E+03  0.19577207789E+03  0.00000000000E+00 0.  1.
<mgrwt>
<rscale>  0 0.12516723E+03</rscale>
<asrwt>0</asrwt>
<pdfrwt beam="1">  1       21 0.27950824E+00 0.12516723E+03</pdfrwt>
<pdfrwt beam="2">  1       21 0.33166526E-03 0.12516723E+03</pdfrwt>
<totfact> 0.98122782E+05</totfact>
</mgrwt>
</event>
<event>
 9    1  0.4541185E-002  0.1249906E+03  0.7818608E-02  0.1235084E+00
         21   -1    0    0  503  502  0.00000000000E+00  0.00000000000E+00  0.78561047712E+02  0.78561047712E+02  0.00000000000E+00 0. -1.
         21   -1    0    0  502  503 -0.00000000000E+00 -0.00000000000E+00 -0.49715011419E+02  0.49715011419E+02  0.00000000000E+00 0. -1.
         25    2    1    2    0    0  0.17763568394E-14 -0.17763568394E-14  0.28846036293E+02  0.12827605913E+03  0.12499061379E+03 0.  0.
    9000006    2    3    3    0    0 -0.34971025749E+01  0.11857116495E+02  0.17335128376E+01  0.61284762118E+02  0.59999967192E+02 0.  0.
    9000007    2    3    3    0    0  0.34971025749E+01 -0.11857116495E+02  0.27112523456E+02  0.66991297014E+02  0.59999366742E+02 0.  0.
          5    1    4    4  501    0  0.21918843426E+02 -0.56225932024E+00  0.17605391607E+02  0.28509500983E+02  0.47000000000E+01 0.  1.
         -5    1    4    4    0  501 -0.25415946001E+02  0.12419375815E+02 -0.15871878769E+02  0.32775261134E+02  0.47000000000E+01 0.  1.
         12    1    5    5    0    0 -0.54355725638E+01  0.59195847499E+00 -0.18281201039E+02  0.19081356748E+02  0.00000000000E+00 0.  1.
        -12    1    5    5    0    0  0.89326751387E+01 -0.12449074970E+02  0.45393724495E+02  0.47909940265E+02  0.00000000000E+00 0.  1.
<mgrwt>
<rscale>  0 0.12499061E+03</rscale>
<asrwt>0</asrwt>
<pdfrwt beam="1">  1       21 0.12086315E-01 0.12499061E+03</pdfrwt>
<pdfrwt beam="2">  1       21 0.76484633E-02 0.12499061E+03</pdfrwt>
<totfact> 0.73613939E+06</totfact>
</mgrwt>
</event>
<event>
 9    1  0.4541185E-002  0.1249974E+03  0.7818608E-02  0.1235073E+00
         21   -1    0    0  503  502  0.00000000000E+00  0.00000000000E+00  0.81421359691E+03  0.81421359691E+03  0.00000000000E+00 0. -1.
         21   -1    0    0  502  503 -0.00000000000E+00 -0.00000000000E+00 -0.47973726896E+01  0.47973726896E+01  0.00000000000E+00 0. -1.
         25    2    1    2    0    0  0.17763568394E-14  0.00000000000E+00  0.80941622422E+03  0.81901096960E+03  0.12499737715E+03 0.  0.
    9000006    2    3    3    0    0 -0.63172760489E+01  0.12535431692E+02  0.33629385017E+03  0.34189275434E+03  0.60000473165E+02 0.  0.
    9000007    2    3    3    0    0  0.63172760489E+01 -0.12535431692E+02  0.47312237405E+03  0.47711821527E+03  0.59999712384E+02 0.  0.
          5    1    4    4  501    0 -0.10533139083E+02 -0.22459945905E+02  0.16764535745E+03  0.16953599046E+03  0.47000000000E+01 0. -1.
         -5    1    4    4    0  501  0.42158630338E+01  0.34995377598E+02  0.16864849273E+03  0.17235676387E+03  0.47000000000E+01 0. -1.
         12    1    5    5    0    0  0.75571185837E+01  0.19144339605E+02  0.76168871756E+02  0.78900651486E+02  0.00000000000E+00 0.  1.
        -12    1    5    5    0    0 -0.12398425348E+01 -0.31679771297E+02  0.39695350230E+03  0.39821756378E+03  0.00000000000E+00 0.  1.
<mgrwt>
<rscale>  0 0.12499738E+03</rscale>
<asrwt>0</asrwt>
<pdfrwt beam="1">  1       21 0.12526352E+00 0.12499738E+03</pdfrwt>
<pdfrwt beam="2">  1       21 0.73805798E-03 0.12499738E+03</pdfrwt>
<totfact> 0.28744438E+06</totfact>
</mgrwt>
</event>
<event>
 9    1  0.4541185E-002  0.1250016E+03  0.7818608E-02  0.1235067E+00
         21   -1    0    0  503  502  0.00000000000E+00  0.00000000000E+00  0.25608851299E+03  0.25608851299E+03  0.00000000000E+00 0. -1.
         21   -1    0    0  502  503 -0.00000000000E+00 -0.00000000000E+00 -0.15253894167E+02  0.15253894167E+02  0.00000000000E+00 0. -1.
         25    2    1    2    0    0  0.17763568394E-14  0.00000000000E+00  0.24083461883E+03  0.27134240716E+03  0.12500155319E+03 0.  0.
    9000006    2    3    3    0    0 -0.81518840303E+01  0.36782668151E+01  0.15306250416E+03  0.16464540045E+03  0.59999957087E+02 0.  0.
    9000007    2    3    3    0    0  0.81518840303E+01 -0.36782668151E+01  0.87772114670E+02  0.10669700671E+03  0.60002702169E+02 0.  0.
          5    1    4    4  501    0  0.90089884785E+00 -0.25449529336E+02  0.99630677645E+02  0.10294101267E+03  0.47000000000E+01 0.  1.
         -5    1    4    4    0  501 -0.90527828781E+01  0.29127796152E+02  0.53431826512E+02  0.61704387776E+02  0.47000000000E+01 0.  1.
         12    1    5    5    0    0  0.10017923478E+02  0.14065760758E+02  0.87149882222E+02  0.88844281683E+02  0.00000000000E+00 0.  1.
        -12    1    5    5    0    0 -0.18660394480E+01 -0.17744027573E+02  0.62223244803E+00  0.17852725029E+02  0.00000000000E+00 0.  1.
<mgrwt>
<rscale>  0 0.12500155E+03</rscale>
<asrwt>0</asrwt>
<pdfrwt beam="1">  1       21 0.39398230E-01 0.12500155E+03</pdfrwt>
<pdfrwt beam="2">  1       21 0.23467531E-02 0.12500155E+03</pdfrwt>
<totfact> 0.57922752E+06</totfact>
</mgrwt>
</event>
<event>
 9    1  0.4541185E-002  0.1250004E+03  0.7818608E-02  0.1235069E+00
         21   -1    0    0  503  502  0.00000000000E+00  0.00000000000E+00  0.45063671274E+02  0.45063671274E+02  0.00000000000E+00 0.  1.
         21   -1    0    0  502  503 -0.00000000000E+00 -0.00000000000E+00 -0.86683464737E+02  0.86683464737E+02  0.00000000000E+00 0.  1.
         25    2    1    2    0    0  0.00000000000E+00  0.00000000000E+00 -0.41619793463E+02  0.13174713601E+03  0.12500040256E+03 0.  0.
    9000006    2    3    3    0    0 -0.13354522787E+02  0.31880139719E+01 -0.93715983585E+01  0.62261500227E+02  0.60001340341E+02 0.  0.
    9000007    2    3    3    0    0  0.13354522787E+02 -0.31880139719E+01 -0.32248195105E+02  0.69485635784E+02  0.59998339817E+02 0.  0.
          5    1    4    4  501    0 -0.17995518203E+02 -0.24431018257E+02 -0.13542519318E+02  0.33558950490E+02  0.47000000000E+01 0. -1.
         -5    1    4    4    0  501  0.46409954160E+01  0.27619032229E+02  0.41709209600E+01  0.28702549737E+02  0.47000000000E+01 0. -1.
         12    1    5    5    0    0 -0.11360750308E+02 -0.23520371273E+02 -0.32929393483E+01  0.26327133568E+02  0.00000000000E+00 0. -1.
        -12    1    5    5    0    0  0.24715273096E+02  0.20332357301E+02 -0.28955255756E+02  0.43158502216E+02  0.00000000000E+00 0. -1.
<mgrwt>
<rscale>  0 0.12500040E+03</rscale>
<asrwt>0</asrwt>
<pdfrwt beam="1">  1       21 0.69328726E-02 0.12500040E+03</pdfrwt>
<pdfrwt beam="2">  1       21 0.13335917E-01 0.12500040E+03</pdfrwt>
<totfact> 0.73129414E+06</totfact>
</mgrwt>
</event>
<event>
 9    1  0.4541185E-002  0.1250015E+03  0.7818608E-02  0.1235067E+00
         21   -1    0    0  503  502  0.00000000000E+00  0.00000000000E+00  0.24621509520E+02  0.24621509520E+02  0.00000000000E+00 0.  1.
         21   -1    0    0  502  503 -0.00000000000E+00 -0.00000000000E+00 -0.15865585177E+03  0.15865585177E+03  0.00000000000E+00 0.  1.
         25    2    1    2    0    0  0.00000000000E+00  0.00000000000E+00 -0.13403434225E+03  0.18327736129E+03  0.12500154503E+03 0.  0.
    9000006    2    3    3    0    0  0.38829078762E+01  0.14905641083E+02 -0.54830808073E+02  0.82726550609E+02  0.60000079601E+02 0.  0.
    9000007    2    3    3    0    0 -0.38829078762E+01 -0.14905641083E+02 -0.79203534178E+02  0.10055081068E+03  0.60000088274E+02 0.  0.
          5    1    4    4  501    0 -0.11641017196E+02 -0.28662366032E+01  0.81953988249E+01  0.15263785753E+02  0.47000000000E+01 0. -1.
         -5    1    4    4    0  501  0.15523925072E+02  0.17771877687E+02 -0.63026206898E+02  0.67462764856E+02  0.47000000000E+01 0. -1.
         12    1    5    5    0    0 -0.99062987475E+01 -0.67476561576E+01  0.69146988256E+01  0.13837582099E+02  0.00000000000E+00 0.  1.
        -12    1    5    5    0    0  0.60233908712E+01 -0.81579849259E+01 -0.86118233004E+02  0.86713228583E+02  0.00000000000E+00 0.  1.
<mgrwt>
<rscale>  0 0.12500155E+03</rscale>
<asrwt>0</asrwt>
<pdfrwt beam="1">  1       21 0.37879245E-02 0.12500155E+03</pdfrwt>
<pdfrwt beam="2">  1       21 0.24408593E-01 0.12500155E+03</pdfrwt>
<totfact> 0.66774926E+06</totfact>
</mgrwt>
</event>
<event>
 9    1  0.4541185E-002  0.1249806E+03  0.7818608E-02  0.1235100E+00
         21   -1    0    0  503  502  0.00000000000E+00  0.00000000000E+00  0.11115642510E+03  0.11115642510E+03  0.00000000000E+00 0.  1.
         21   -1    0    0  502  503 -0.00000000000E+00 -0.00000000000E+00 -0.35130995721E+02  0.35130995721E+02  0.00000000000E+00 0.  1.
         25    2    1    2    0    0  0.00000000000E+00 -0.17763568394E-14  0.76025429376E+02  0.14628742082E+03  0.12498057280E+03 0.  0.
    9000006    2    3    3    0    0  0.16662125652E+02 -0.51715834833E+00  0.44103435351E+02  0.76310593659E+02  0.60002498372E+02 0.  0.
    9000007    2    3    3    0    0 -0.16662125652E+02  0.51715834833E+00  0.31921994026E+02  0.69976827159E+02  0.59998739592E+02 0.  0.
          5    1    4    4  501    0  0.31856432262E+02 -0.19300362826E+02  0.28942236095E+02  0.47403368149E+02  0.47000000000E+01 0.  1.
         -5    1    4    4    0  501 -0.15194306610E+02  0.18783204478E+02  0.15161199256E+02  0.28907225510E+02  0.47000000000E+01 0.  1.
         12    1    5    5    0    0 -0.99788625474E+01 -0.11223892488E+02 -0.14953448215E+02  0.21193373348E+02  0.00000000000E+00 0. -1.
        -12    1    5    5    0    0 -0.66832631045E+01  0.11741050837E+02  0.46875442241E+02  0.48783453811E+02  0.00000000000E+00 0. -1.
<mgrwt>
<rscale>  0 0.12498057E+03</rscale>
<asrwt>0</asrwt>
<pdfrwt beam="1">  1       21 0.17100988E-01 0.12498057E+03</pdfrwt>
<pdfrwt beam="2">  1       21 0.54047686E-02 0.12498057E+03</pdfrwt>
<totfact> 0.71263994E+06</totfact>
</mgrwt>
</event>
<event>
 9    1  0.4541185E-002  0.1250169E+03  0.7818608E-02  0.1235043E+00
         21   -1    0    0  503  502  0.00000000000E+00  0.00000000000E+00  0.31096839315E+02  0.31096839315E+02  0.00000000000E+00 0.  1.
         21   -1    0    0  502  503 -0.00000000000E+00 -0.00000000000E+00 -0.12564957277E+03  0.12564957277E+03  0.00000000000E+00 0.  1.
         25    2    1    2    0    0  0.00000000000E+00  0.17763568394E-14 -0.94552733460E+02  0.15674641209E+03  0.12501687205E+03 0.  0.
    9000006    2    3    3    0    0  0.13036597849E+02 -0.11160493348E+02 -0.51809453890E+02  0.81106044682E+02  0.59995512135E+02 0.  0.
    9000007    2    3    3    0    0 -0.13036597849E+02  0.11160493348E+02 -0.42743279570E+02  0.75640367407E+02  0.59999731148E+02 0.  0.
          5    1    4    4  501    0  0.20357037932E+02 -0.16287460116E+02  0.18015851025E+01  0.26552326815E+02  0.47000000000E+01 0.  1.
         -5    1    4    4    0  501 -0.73204400833E+01  0.51269667688E+01 -0.53611038993E+02  0.54553717868E+02  0.47000000000E+01 0.  1.
         12    1    5    5    0    0 -0.30412447036E+02 -0.58344042872E+01 -0.59337427176E+01  0.31530406130E+02  0.00000000000E+00 0.  1.
        -12    1    5    5    0    0  0.17375849187E+02  0.16994897635E+02 -0.36809536852E+02  0.44109961277E+02  0.00000000000E+00 0.  1.
<mgrwt>
<rscale>  0 0.12501687E+03</rscale>
<asrwt>0</asrwt>
<pdfrwt beam="1">  1       21 0.47841292E-02 0.12501687E+03</pdfrwt>
<pdfrwt beam="2">  1       21 0.19330703E-01 0.12501687E+03</pdfrwt>
<totfact> 0.69889256E+06</totfact>
</mgrwt>
</event>
<event>
 9    1  0.4541185E-002  0.1249942E+03  0.7818608E-02  0.1235078E+00
         21   -1    0    0  503  502  0.00000000000E+00  0.00000000000E+00  0.33275346342E+03  0.33275346342E+03  0.00000000000E+00 0. -1.
         21   -1    0    0  502  503 -0.00000000000E+00 -0.00000000000E+00 -0.11738086663E+02  0.11738086663E+02  0.00000000000E+00 0. -1.
         25    2    1    2    0    0 -0.35527136788E-14  0.00000000000E+00  0.32101537676E+03  0.34449155008E+03  0.12499422372E+03 0.  0.
    9000006    2    3    3    0    0 -0.13217358692E+02 -0.50946442747E+01  0.13223307761E+03  0.14589812886E+03  0.60000193514E+02 0.  0.
    9000007    2    3    3    0    0  0.13217358692E+02  0.50946442747E+01  0.18878229915E+03  0.19859342122E+03  0.59999470896E+02 0.  0.
          5    1    4    4  501    0 -0.17297434346E+01  0.14608638475E+02  0.45367252744E+01  0.16095844391E+02  0.47000000000E+01 0.  1.
         -5    1    4    4    0  501 -0.11487615258E+02 -0.19703282750E+02  0.12769635233E+03  0.12980228447E+03  0.47000000000E+01 0.  1.
         12    1    5    5    0    0  0.25677556448E+02  0.25978420291E+02  0.12850320099E+03  0.13359374196E+03  0.00000000000E+00 0.  1.
        -12    1    5    5    0    0 -0.12460197756E+02 -0.20883776017E+02  0.60279098155E+02  0.64999679255E+02  0.00000000000E+00 0.  1.
<mgrwt>
<rscale>  0 0.12499422E+03</rscale>
<asrwt>0</asrwt>
<pdfrwt beam="1">  1       21 0.51192833E-01 0.12499422E+03</pdfrwt>
<pdfrwt beam="2">  1       21 0.18058597E-02 0.12499422E+03</pdfrwt>
<totfact> 0.51955359E+06</totfact>
</mgrwt>
</event>
<event>
 9    1  0.4541185E-002  0.1250054E+03  0.7818608E-02  0.1235061E+00
         21   -1    0    0  503  502  0.00000000000E+00  0.00000000000E+00  0.46631439847E+02  0.46631439847E+02  0.00000000000E+00 0. -1.
         21   -1    0    0  502  503 -0.00000000000E+00 -0.00000000000E+00 -0.83775842591E+02  0.83775842591E+02  0.00000000000E+00 0. -1.
         25    2    1    2    0    0  0.17763568394E-14  0.35527136788E-14 -0.37144402744E+02  0.13040728244E+03  0.12500541051E+03 0.  0.
    9000006    2    3    3    0    0  0.86494949531E+01  0.13739830350E+02 -0.25415256977E+02  0.67153679801E+02  0.60000706018E+02 0.  0.
    9000007    2    3    3    0    0 -0.86494949531E+01 -0.13739830350E+02 -0.11729145766E+02  0.63253602636E+02  0.59998739029E+02 0.  0.
          5    1    4    4  501    0  0.25002389855E+02  0.11369704652E+02  0.85022815419E+01  0.29133631318E+02  0.47000000000E+01 0. -1.
         -5    1    4    4    0  501 -0.16352894902E+02  0.23701256985E+01 -0.33917538519E+02  0.38020048484E+02  0.47000000000E+01 0. -1.
         12    1    5    5    0    0  0.61377092506E+01 -0.23532532098E+02 -0.29442099326E+02  0.38187547113E+02  0.00000000000E+00 0.  1.
        -12    1    5    5    0    0 -0.14787204204E+02  0.97927017472E+01  0.17712953560E+02  0.25066055523E+02  0.00000000000E+00 0.  1.
<mgrwt>
<rscale>  0 0.12500541E+03</rscale>
<asrwt>0</asrwt>
<pdfrwt beam="1">  1       21 0.71740678E-02 0.12500541E+03</pdfrwt>
<pdfrwt beam="2">  1       21 0.12888591E-01 0.12500541E+03</pdfrwt>
<totfact> 0.73300406E+06</totfact>
</mgrwt>
</event>
<event>
 9    1  0.4541185E-002  0.1250047E+03  0.7818608E-02  0.1235062E+00
         21   -1    0    0  503  502  0.00000000000E+00  0.00000000000E+00  0.15849131840E+03  0.15849131840E+03  0.00000000000E+00 0.  1.
         21   -1    0    0  502  503 -0.00000000000E+00 -0.00000000000E+00 -0.24648315678E+02  0.24648315678E+02  0.00000000000E+00 0.  1.
         25    2    1    2    0    0  0.00000000000E+00  0.00000000000E+00  0.13384300272E+03  0.18313963408E+03  0.12500470468E+03 0.  0.
    9000006    2    3    3    0    0  0.17125580093E+02 -0.22870030782E+01  0.71068775103E+02  0.94600857013E+02  0.60000295636E+02 0.  0.
    9000007    2    3    3    0    0 -0.17125580093E+02  0.22870030782E+01  0.62774227616E+02  0.88538777063E+02  0.59999962620E+02 0.  0.
          5    1    4    4  501    0 -0.18008984176E+02  0.13477397950E+02  0.19973517775E+02  0.30446595521E+02  0.47000000000E+01 0.  1.
         -5    1    4    4    0  501  0.35134564268E+02 -0.15764401028E+02  0.51095257329E+02  0.64154261492E+02  0.47000000000E+01 0.  1.
         12    1    5    5    0    0  0.19497637421E+02  0.92229966278E+01  0.38275177662E+02  0.43934163891E+02  0.00000000000E+00 0.  1.
        -12    1    5    5    0    0 -0.36623217513E+02 -0.69359935496E+01  0.24499049954E+02  0.44604613172E+02  0.00000000000E+00 0.  1.
<mgrwt>
<rscale>  0 0.12500470E+03</rscale>
<asrwt>0</asrwt>
<pdfrwt beam="1">  1       21 0.24383279E-01 0.12500470E+03</pdfrwt>
<pdfrwt beam="2">  1       21 0.37920487E-02 0.12500470E+03</pdfrwt>
<totfact> 0.66785213E+06</totfact>
</mgrwt>
</event>
<event>
 9    1  0.4541185E-002  0.1250037E+03  0.7818608E-02  0.1235064E+00
         21   -1    0    0  503  502  0.00000000000E+00  0.00000000000E+00  0.76394483645E+01  0.76394483645E+01  0.00000000000E+00 0.  1.
         21   -1    0    0  502  503 -0.00000000000E+00 -0.00000000000E+00 -0.51135616289E+03  0.51135616289E+03  0.00000000000E+00 0.  1.
         25    2    1    2    0    0 -0.17763568394E-14  0.00000000000E+00 -0.50371671453E+03  0.51899561126E+03  0.12500366398E+03 0.  0.
    9000006    2    3    3    0    0 -0.27891039378E+01  0.31479705836E+00 -0.18012171711E+03  0.18987270353E+03  0.59999436433E+02 0.  0.
    9000007    2    3    3    0    0  0.27891039378E+01 -0.31479705836E+00 -0.32359499742E+03  0.32912290773E+03  0.60002398621E+02 0.  0.
          5    1    4    4  501    0  0.24672127666E+02  0.14283205194E+02 -0.85333704943E+02  0.90092480449E+02  0.47000000000E+01 0. -1.
         -5    1    4    4    0  501 -0.27461231604E+02 -0.13968408136E+02 -0.94788012165E+02  0.99780223077E+02  0.47000000000E+01 0. -1.
         12    1    5    5    0    0 -0.88667373366E+01  0.10367755309E+02 -0.15605193104E+02  0.20727552507E+02  0.00000000000E+00 0.  1.
        -12    1    5    5    0    0  0.11655841274E+02 -0.10682552367E+02 -0.30798980432E+03  0.30839535523E+03  0.00000000000E+00 0.  1.
<mgrwt>
<rscale>  0 0.12500366E+03</rscale>
<asrwt>0</asrwt>
<pdfrwt beam="1">  1       21 0.11752999E-02 0.12500366E+03</pdfrwt>
<pdfrwt beam="2">  1       21 0.78670172E-01 0.12500366E+03</pdfrwt>
<totfact> 0.41028545E+06</totfact>
</mgrwt>
</event>
<event>
 9    1  0.4541185E-002  0.1249889E+03  0.7818608E-02  0.1235087E+00
         21   -1    0    0  503  502  0.00000000000E+00  0.00000000000E+00  0.26651977196E+02  0.26651977196E+02  0.00000000000E+00 0. -1.
         21   -1    0    0  502  503 -0.00000000000E+00 -0.00000000000E+00 -0.14653910111E+03  0.14653910111E+03  0.00000000000E+00 0. -1.
         25    2    1    2    0    0 -0.35527136788E-14 -0.88817841970E-15 -0.11988712391E+03  0.17319107831E+03  0.12498890801E+03 0.  0.
    9000006    2    3    3    0    0 -0.84808155870E+01 -0.56836759500E+01 -0.79604966301E+02  0.10020562788E+03  0.59999906606E+02 0.  0.
    9000007    2    3    3    0    0  0.84808155870E+01  0.56836759500E+01 -0.40282157613E+02  0.72985450431E+02  0.59999961228E+02 0.  0.
          5    1    4    4  501    0 -0.25896395418E+02  0.81785094882E+00 -0.76341684558E+02  0.80755402154E+02  0.47000000000E+01 0. -1.
         -5    1    4    4    0  501  0.17415579831E+02 -0.65015268988E+01 -0.32632817428E+01  0.19450225721E+02  0.47000000000E+01 0. -1.
         12    1    5    5    0    0  0.16825041457E+02  0.98171757426E+01 -0.53432163746E+02  0.56872269888E+02  0.00000000000E+00 0.  1.
        -12    1    5    5    0    0 -0.83442258702E+01 -0.41334997926E+01  0.13150006133E+02  0.16113180543E+02  0.00000000000E+00 0.  1.
<mgrwt>
<rscale>  0 0.12498891E+03</rscale>
<asrwt>0</asrwt>
<pdfrwt beam="1">  1       21 0.41003041E-02 0.12498891E+03</pdfrwt>
<pdfrwt beam="2">  1       21 0.22544477E-01 0.12498891E+03</pdfrwt>
<totfact> 0.67960479E+06</totfact>
</mgrwt>
</event>
<event>
 9    1  0.4541185E-002  0.1249971E+03  0.7818608E-02  0.1235074E+00
         21   -1    0    0  503  502  0.00000000000E+00  0.00000000000E+00  0.69027880158E+02  0.69027880158E+02  0.00000000000E+00 0.  1.
         21   -1    0    0  502  503 -0.00000000000E+00 -0.00000000000E+00 -0.56586862779E+02  0.56586862779E+02  0.00000000000E+00 0.  1.
         25    2    1    2    0    0  0.00000000000E+00  0.35527136788E-14  0.12441017380E+02  0.12561474294E+03  0.12499713889E+03 0.  0.
    9000006    2    3    3    0    0  0.90867007768E+01  0.13653032643E+02  0.12579346113E+00  0.62201699167E+02  0.60000517696E+02 0.  0.
    9000007    2    3    3    0    0 -0.90867007768E+01 -0.13653032643E+02  0.12315223919E+02  0.63413043771E+02  0.60004799381E+02 0.  0.
          5    1    4    4  501    0 -0.17584252307E+02  0.15083183790E+02  0.18008295913E+02  0.29716949442E+02  0.47000000000E+01 0. -1.
         -5    1    4    4    0  501  0.26670953084E+02 -0.14301511469E+01 -0.17882502452E+02  0.32484749724E+02  0.47000000000E+01 0. -1.
         12    1    5    5    0    0 -0.28544256333E+02 -0.22902313112E+02 -0.33888576855E+01  0.36752889300E+02  0.00000000000E+00 0.  1.
        -12    1    5    5    0    0  0.19457555556E+02  0.92492804687E+01  0.15704081604E+02  0.26660154471E+02  0.00000000000E+00 0.  1.
<mgrwt>
<rscale>  0 0.12499714E+03</rscale>
<asrwt>0</asrwt>
<pdfrwt beam="1">  1       21 0.10619674E-01 0.12499714E+03</pdfrwt>
<pdfrwt beam="2">  1       21 0.87056712E-02 0.12499714E+03</pdfrwt>
<totfact> 0.73964786E+06</totfact>
</mgrwt>
</event>
<event>
 9    1  0.4541185E-002  0.1250000E+03  0.7818608E-02  0.1235069E+00
         21   -1    0    0  503  502  0.00000000000E+00  0.00000000000E+00  0.34587331687E+02  0.34587331687E+02  0.00000000000E+00 0. -1.
         21   -1    0    0  502  503 -0.00000000000E+00 -0.00000000000E+00 -0.11293883754E+03  0.11293883754E+03  0.00000000000E+00 0. -1.
         25    2    1    2    0    0  0.35527136788E-14  0.00000000000E+00 -0.78351505853E+02  0.14752616923E+03  0.12500004855E+03 0.  0.
    9000006    2    3    3    0    0  0.11474017871E+02  0.13160571112E+02 -0.40595421249E+02  0.74516393326E+02  0.59998757736E+02 0.  0.
    9000007    2    3    3    0    0 -0.11474017871E+02 -0.13160571112E+02 -0.37756084604E+02  0.73009775901E+02  0.60000431119E+02 0.  0.
          5    1    4    4  501    0 -0.22040584694E+02  0.15934464855E+02 -0.24638797612E+02  0.36998039024E+02  0.47000000000E+01 0. -1.
         -5    1    4    4    0  501  0.33514602565E+02 -0.27738937429E+01 -0.15956623637E+02  0.37518354301E+02  0.47000000000E+01 0. -1.
         12    1    5    5    0    0  0.10337119054E+02  0.42929669159E+01 -0.43133494638E+02  0.44562135888E+02  0.00000000000E+00 0.  1.
        -12    1    5    5    0    0 -0.21811136925E+02 -0.17453538028E+02  0.53774100333E+01  0.28447640013E+02  0.00000000000E+00 0.  1.
<mgrwt>
<rscale>  0 0.12500005E+03</rscale>
<asrwt>0</asrwt>
<pdfrwt beam="1">  1       21 0.53211280E-02 0.12500005E+03</pdfrwt>
<pdfrwt beam="2">  1       21 0.17375206E-01 0.12500005E+03</pdfrwt>
<totfact> 0.71071272E+06</totfact>
</mgrwt>
</event>
<event>
 9    1  0.4541185E-002  0.1249995E+03  0.7818608E-02  0.1235070E+00
         21   -1    0    0  503  502  0.00000000000E+00  0.00000000000E+00  0.50295760084E+02  0.50295760084E+02  0.00000000000E+00 0.  1.
         21   -1    0    0  502  503 -0.00000000000E+00 -0.00000000000E+00 -0.77665011397E+02  0.77665011397E+02  0.00000000000E+00 0.  1.
         25    2    1    2    0    0  0.00000000000E+00  0.35527136788E-14 -0.27369251313E+02  0.12796077148E+03  0.12499953248E+03 0.  0.
    9000006    2    3    3    0    0 -0.12604157080E+02  0.10796552257E+02 -0.19358436857E+02  0.65191622464E+02  0.59998068682E+02 0.  0.
    9000007    2    3    3    0    0  0.12604157080E+02 -0.10796552257E+02 -0.80108144558E+01  0.62769149017E+02  0.60003021622E+02 0.  0.
          5    1    4    4  501    0 -0.15604407830E+02  0.31766901940E+02  0.60193777904E+00  0.35708345407E+02  0.47000000000E+01 0.  1.
         -5    1    4    4    0  501  0.30002507499E+01 -0.20970349684E+02 -0.19960374636E+02  0.29483277057E+02  0.47000000000E+01 0.  1.
         12    1    5    5    0    0 -0.82841822974E+01 -0.31592368115E+02 -0.22632634138E+01  0.32738780685E+02  0.00000000000E+00 0.  1.
        -12    1    5    5    0    0  0.20888339378E+02  0.20795815858E+02 -0.57475510421E+01  0.30030368332E+02  0.00000000000E+00 0.  1.
<mgrwt>
<rscale>  0 0.12499953E+03</rscale>
<asrwt>0</asrwt>
<pdfrwt beam="1">  1       21 0.77378093E-02 0.12499953E+03</pdfrwt>
<pdfrwt beam="2">  1       21 0.11948463E-01 0.12499953E+03</pdfrwt>
<totfact> 0.73639738E+06</totfact>
</mgrwt>
</event>
<event>
 9    1  0.4541185E-002  0.1250017E+03  0.7818608E-02  0.1235067E+00
         21   -1    0    0  503  502  0.00000000000E+00  0.00000000000E+00  0.13768987471E+03  0.13768987471E+03  0.00000000000E+00 0. -1.
         21   -1    0    0  502  503 -0.00000000000E+00 -0.00000000000E+00 -0.28370666647E+02  0.28370666647E+02  0.00000000000E+00 0. -1.
         25    2    1    2    0    0 -0.35527136788E-14 -0.17763568394E-14  0.10931920806E+03  0.16606054136E+03  0.12500165657E+03 0.  0.
    9000006    2    3    3    0    0  0.14175289554E+02 -0.73467407090E+01  0.45122097694E+02  0.76751167851E+02  0.59998538592E+02 0.  0.
    9000007    2    3    3    0    0 -0.14175289554E+02  0.73467407090E+01  0.64197110368E+02  0.89309373505E+02  0.59999848194E+02 0.  0.
          5    1    4    4  501    0 -0.19444670459E+02 -0.17369311946E+02  0.16305467225E+02  0.31108623695E+02  0.47000000000E+01 0.  1.
         -5    1    4    4    0  501  0.33619960013E+02  0.10022571237E+02  0.28816630469E+02  0.45642544157E+02  0.47000000000E+01 0.  1.
         12    1    5    5    0    0 -0.36482464481E+02  0.89055577075E+01  0.51031193918E+02  0.63359781608E+02  0.00000000000E+00 0. -1.
        -12    1    5    5    0    0  0.22307174927E+02 -0.15588169984E+01  0.13165916449E+02  0.25949591897E+02  0.00000000000E+00 0. -1.
<mgrwt>
<rscale>  0 0.12500166E+03</rscale>
<asrwt>0</asrwt>
<pdfrwt beam="1">  1       21 0.21183057E-01 0.12500166E+03</pdfrwt>
<pdfrwt beam="2">  1       21 0.43647180E-02 0.12500166E+03</pdfrwt>
<totfact> 0.68783547E+06</totfact>
</mgrwt>
</event>
<event>
 9    1  0.4541185E-002  0.1249871E+03  0.7818608E-02  0.1235089E+00
         21   -1    0    0  503  502  0.00000000000E+00  0.00000000000E+00  0.12714911586E+02  0.12714911586E+02  0.00000000000E+00 0.  1.
         21   -1    0    0  502  503 -0.00000000000E+00 -0.00000000000E+00 -0.30715466770E+03  0.30715466770E+03  0.00000000000E+00 0.  1.
         25    2    1    2    0    0 -0.17763568394E-14 -0.17763568394E-14 -0.29443975612E+03  0.31986957929E+03  0.12498711043E+03 0.  0.
    9000006    2    3    3    0    0  0.15808009386E+01  0.15539332344E+02 -0.12726942240E+03  0.14156938228E+03  0.60003452726E+02 0.  0.
    9000007    2    3    3    0    0 -0.15808009386E+01 -0.15539332344E+02 -0.16717033371E+03  0.17830019701E+03  0.60008915990E+02 0.  0.
          5    1    4    4  501    0 -0.15053806078E+02  0.26532215645E+02 -0.33346645423E+02  0.45438577282E+02  0.47000000000E+01 0. -1.
         -5    1    4    4    0  501  0.16634607016E+02 -0.10992883302E+02 -0.93922776981E+02  0.96130804999E+02  0.47000000000E+01 0. -1.
         12    1    5    5    0    0 -0.24982494360E+02  0.13637867729E+01 -0.12309902322E+03  0.12561590049E+03  0.00000000000E+00 0. -1.
        -12    1    5    5    0    0  0.23401693421E+02 -0.16903119116E+02 -0.44071310494E+02  0.52684296517E+02  0.00000000000E+00 0. -1.
<mgrwt>
<rscale>  0 0.12498711E+03</rscale>
<asrwt>0</asrwt>
<pdfrwt beam="1">  1       21 0.19561405E-02 0.12498711E+03</pdfrwt>
<pdfrwt beam="2">  1       21 0.47254558E-01 0.12498711E+03</pdfrwt>
<totfact> 0.53861098E+06</totfact>
</mgrwt>
</event>
<event>
 9    1  0.4541185E-002  0.1250017E+03  0.7818608E-02  0.1235067E+00
         21   -1    0    0  503  502  0.00000000000E+00  0.00000000000E+00  0.18771681094E+03  0.18771681094E+03  0.00000000000E+00 0. -1.
         21   -1    0    0  502  503 -0.00000000000E+00 -0.00000000000E+00 -0.20809833535E+02  0.20809833535E+02  0.00000000000E+00 0. -1.
         25    2    1    2    0    0  0.35527136788E-14  0.00000000000E+00  0.16690697740E+03  0.20852664447E+03  0.12500168939E+03 0.  0.
    9000006    2    3    3    0    0  0.41166394606E+01 -0.16452671374E+02  0.76232866927E+02  0.98483533638E+02  0.59999327347E+02 0.  0.
    9000007    2    3    3    0    0 -0.41166394606E+01  0.16452671374E+02  0.90674110478E+02  0.11004311084E+03  0.60000456798E+02 0.  0.
          5    1    4    4  501    0  0.23823315061E+02  0.82889474120E+01  0.15859177027E+02  0.30163893742E+02  0.47000000000E+01 0. -1.
         -5    1    4    4    0  501 -0.19706675600E+02 -0.24741618786E+02  0.60373689900E+02  0.68319639896E+02  0.47000000000E+01 0. -1.
         12    1    5    5    0    0  0.17740942161E+02  0.23565359756E+02  0.19777968765E+02  0.35513874157E+02  0.00000000000E+00 0. -1.
        -12    1    5    5    0    0 -0.21857581622E+02 -0.71126883814E+01  0.70896141712E+02  0.74529236680E+02  0.00000000000E+00 0. -1.
<mgrwt>
<rscale>  0 0.12500169E+03</rscale>
<asrwt>0</asrwt>
<pdfrwt beam="1">  1       21 0.28879508E-01 0.12500169E+03</pdfrwt>
<pdfrwt beam="2">  1       21 0.32015130E-02 0.12500169E+03</pdfrwt>
<totfact> 0.64012148E+06</totfact>
</mgrwt>
</event>
<event>
 9    1  0.4541185E-002  0.1249643E+03  0.7818608E-02  0.1235125E+00
         21   -1    0    0  503  502  0.00000000000E+00  0.00000000000E+00  0.80902257732E+01  0.80902257732E+01  0.00000000000E+00 0. -1.
         21   -1    0    0  502  503 -0.00000000000E+00 -0.00000000000E+00 -0.48255994440E+03  0.48255994440E+03  0.00000000000E+00 0. -1.
         25    2    1    2    0    0  0.00000000000E+00 -0.88817841970E-15 -0.47446971863E+03  0.49065017017E+03  0.12496429729E+03 0.  0.
    9000006    2    3    3    0    0  0.17246942119E+02  0.21568746703E+01 -0.23151571067E+03  0.23979490728E+03  0.59999701236E+02 0.  0.
    9000007    2    3    3    0    0 -0.17246942119E+02 -0.21568746703E+01 -0.24295400795E+03  0.25085526289E+03  0.59996698404E+02 0.  0.
          5    1    4    4  501    0  0.22258711670E+02  0.82036736883E+00 -0.27677420853E+02  0.35836474058E+02  0.47000000000E+01 0. -1.
         -5    1    4    4    0  501 -0.50117695514E+01  0.13365073015E+01 -0.20383828982E+03  0.20395843322E+03  0.47000000000E+01 0. -1.
         12    1    5    5    0    0  0.11320394067E+02  0.11179028441E+02 -0.19401476921E+02  0.25090621863E+02  0.00000000000E+00 0.  1.
        -12    1    5    5    0    0 -0.28567336186E+02 -0.13335903112E+02 -0.22355253103E+03  0.22576464103E+03  0.00000000000E+00 0.  1.
<mgrwt>
<rscale>  0 0.12496430E+03</rscale>
<asrwt>0</asrwt>
<pdfrwt beam="1">  1       21 0.12446502E-02 0.12496430E+03</pdfrwt>
<pdfrwt beam="2">  1       21 0.74239986E-01 0.12496430E+03</pdfrwt>
<totfact> 0.42593580E+06</totfact>
</mgrwt>
</event>
<event>
 9    1  0.4541185E-002  0.1249988E+03  0.7818608E-02  0.1235071E+00
         21   -1    0    0  503  502  0.00000000000E+00  0.00000000000E+00  0.18855203896E+01  0.18855203896E+01  0.00000000000E+00 0.  1.
         21   -1    0    0  502  503 -0.00000000000E+00 -0.00000000000E+00 -0.20716691403E+04  0.20716691403E+04  0.00000000000E+00 0.  1.
         25    2    1    2    0    0 -0.88817841970E-15  0.35527136788E-14 -0.20697836199E+04  0.20735546607E+04  0.12499879047E+03 0.  0.
    9000006    2    3    3    0    0  0.65575347946E+01  0.15396329388E+02 -0.95016614148E+03  0.95220574195E+03  0.60000253021E+02 0.  0.
    9000007    2    3    3    0    0 -0.65575347946E+01 -0.15396329388E+02 -0.11196174784E+04  0.11213489188E+04  0.60000427788E+02 0.  0.
          5    1    4    4  501    0  0.29839680196E+02  0.22193066012E+02 -0.54580497216E+03  0.54709057415E+03  0.47000000000E+01 0. -1.
         -5    1    4    4    0  501 -0.23282145401E+02 -0.67967366240E+01 -0.40436116932E+03  0.40511516780E+03  0.47000000000E+01 0. -1.
         12    1    5    5    0    0  0.54031303499E+01  0.15750381385E+02 -0.11726679427E+03  0.11844310605E+03  0.00000000000E+00 0. -1.
        -12    1    5    5    0    0 -0.11960665145E+02 -0.31146710773E+02 -0.10023506842E+04  0.10029058127E+04  0.00000000000E+00 0. -1.
<mgrwt>
<rscale>  0 0.12499879E+03</rscale>
<asrwt>0</asrwt>
<pdfrwt beam="1">  1       21 0.29008072E-03 0.12499879E+03</pdfrwt>
<pdfrwt beam="2">  1       21 0.31871760E+00 0.12499879E+03</pdfrwt>
<totfact> 0.72531414E+05</totfact>
</mgrwt>
</event>
<event>
 9    1  0.4541185E-002  0.1249872E+03  0.7818608E-02  0.1235089E+00
         21   -1    0    0  503  502  0.00000000000E+00  0.00000000000E+00  0.36089862333E+02  0.36089862333E+02  0.00000000000E+00 0. -1.
         21   -1    0    0  502  503 -0.00000000000E+00 -0.00000000000E+00 -0.10821460098E+03  0.10821460098E+03  0.00000000000E+00 0. -1.
         25    2    1    2    0    0  0.00000000000E+00  0.00000000000E+00 -0.72124738651E+02  0.14430446332E+03  0.12498720018E+03 0.  0.
    9000006    2    3    3    0    0 -0.62380977259E+01 -0.16050130666E+02 -0.39503125627E+02  0.73871443197E+02  0.59999771900E+02 0.  0.
    9000007    2    3    3    0    0  0.62380977259E+01  0.16050130666E+02 -0.32621613023E+02  0.70433020120E+02  0.60001001069E+02 0.  0.
          5    1    4    4  501    0 -0.47725954440E+01 -0.13026790170E+02  0.13878170018E+02  0.20178417491E+02  0.47000000000E+01 0. -1.
         -5    1    4    4    0  501 -0.14655022819E+01 -0.30233404956E+01 -0.53381295645E+02  0.53693025706E+02  0.47000000000E+01 0. -1.
         12    1    5    5    0    0 -0.19947723939E+02 -0.10289619030E+02 -0.24450892717E+01  0.22578007257E+02  0.00000000000E+00 0.  1.
        -12    1    5    5    0    0  0.26185821665E+02  0.26339749696E+02 -0.30176523752E+02  0.47855012863E+02  0.00000000000E+00 0.  1.
<mgrwt>
<rscale>  0 0.12498720E+03</rscale>
<asrwt>0</asrwt>
<pdfrwt beam="1">  1       21 0.55522865E-02 0.12498720E+03</pdfrwt>
<pdfrwt beam="2">  1       21 0.16648400E-01 0.12498720E+03</pdfrwt>
<totfact> 0.71505537E+06</totfact>
</mgrwt>
</event>
<event>
 9    1  0.4541185E-002  0.1249971E+03  0.7818608E-02  0.1235074E+00
         21   -1    0    0  503  502  0.00000000000E+00  0.00000000000E+00  0.18068632051E+03  0.18068632051E+03  0.00000000000E+00 0.  1.
         21   -1    0    0  502  503 -0.00000000000E+00 -0.00000000000E+00 -0.21617943069E+02  0.21617943069E+02  0.00000000000E+00 0.  1.
         25    2    1    2    0    0 -0.17763568394E-14 -0.17763568394E-14  0.15906837744E+03  0.20230426358E+03  0.12499706541E+03 0.  0.
    9000006    2    3    3    0    0  0.15672670363E+02  0.14235333430E+01  0.91905601216E+02  0.11087949324E+03  0.59999695357E+02 0.  0.
    9000007    2    3    3    0    0 -0.15672670363E+02 -0.14235333430E+01  0.67162776227E+02  0.91424770341E+02  0.59999925649E+02 0.  0.
          5    1    4    4  501    0  0.97272381353E+01  0.28246985468E+02  0.66962553752E+02  0.73475063489E+02  0.47000000000E+01 0. -1.
         -5    1    4    4    0  501  0.59454322275E+01 -0.26823452125E+02  0.24943047464E+02  0.37404429752E+02  0.47000000000E+01 0. -1.
         12    1    5    5    0    0 -0.16269865973E+02  0.14070711297E+02  0.72029864717E+02  0.75173099353E+02  0.00000000000E+00 0. -1.
        -12    1    5    5    0    0  0.59719561040E+00 -0.15494244640E+02 -0.48670884893E+01  0.16251670988E+02  0.00000000000E+00 0. -1.
<mgrwt>
<rscale>  0 0.12499707E+03</rscale>
<asrwt>0</asrwt>
<pdfrwt beam="1">  1       21 0.27797895E-01 0.12499707E+03</pdfrwt>
<pdfrwt beam="2">  1       21 0.33258375E-02 0.12499707E+03</pdfrwt>
<totfact> 0.64683227E+06</totfact>
</mgrwt>
</event>
<event>
 9    1  0.4541185E-002  0.1249994E+03  0.7818608E-02  0.1235070E+00
         21   -1    0    0  503  502  0.00000000000E+00  0.00000000000E+00  0.94371705962E+01  0.94371705962E+01  0.00000000000E+00 0.  1.
         21   -1    0    0  502  503 -0.00000000000E+00 -0.00000000000E+00 -0.41391782149E+03  0.41391782149E+03  0.00000000000E+00 0.  1.
         25    2    1    2    0    0  0.17763568394E-14  0.00000000000E+00 -0.40448065090E+03  0.42335499209E+03  0.12499940951E+03 0.  0.
    9000006    2    3    3    0    0  0.19205405014E+01  0.84729041293E+00 -0.26107878092E+03  0.26789268130E+03  0.59999603910E+02 0.  0.
    9000007    2    3    3    0    0 -0.19205405014E+01 -0.84729041293E+00 -0.14340186998E+03  0.15546231079E+03  0.60000228224E+02 0.  0.
          5    1    4    4  501    0  0.90392349678E+01 -0.28010044161E+01 -0.50765744975E+01  0.11722414562E+02  0.47000000000E+01 0. -1.
         -5    1    4    4    0  501 -0.71186944664E+01  0.36482948291E+01 -0.25600220642E+03  0.25617026674E+03  0.47000000000E+01 0. -1.
         12    1    5    5    0    0  0.24318090851E+02 -0.39129907365E+01 -0.28992507420E+02  0.38042693459E+02  0.00000000000E+00 0.  1.
        -12    1    5    5    0    0 -0.26238631353E+02  0.30657003236E+01 -0.11440936256E+03  0.11741961733E+03  0.00000000000E+00 0.  1.
<mgrwt>
<rscale>  0 0.12499941E+03</rscale>
<asrwt>0</asrwt>
<pdfrwt beam="1">  1       21 0.14518724E-02 0.12499941E+03</pdfrwt>
<pdfrwt beam="2">  1       21 0.63679665E-01 0.12499941E+03</pdfrwt>
<totfact> 0.46530548E+06</totfact>
</mgrwt>
</event>
<event>
 9    1  0.4541185E-002  0.1249949E+03  0.7818608E-02  0.1235077E+00
         21   -1    0    0  503  502  0.00000000000E+00  0.00000000000E+00  0.16431386536E+03  0.16431386536E+03  0.00000000000E+00 0. -1.
         21   -1    0    0  502  503 -0.00000000000E+00 -0.00000000000E+00 -0.23771167235E+02  0.23771167235E+02  0.00000000000E+00 0. -1.
         25    2    1    2    0    0  0.00000000000E+00  0.00000000000E+00  0.14054269813E+03  0.18808503260E+03  0.12499491786E+03 0.  0.
    9000006    2    3    3    0    0 -0.15559498247E+02 -0.21959424949E+01  0.58707816292E+02  0.85401778474E+02  0.59999466027E+02 0.  0.
    9000007    2    3    3    0    0  0.15559498247E+02  0.21959424949E+01  0.81834881834E+02  0.10268325412E+03  0.59999855358E+02 0.  0.
          5    1    4    4  501    0  0.14717425742E+02  0.86551000921E+01 -0.65679458225E+00  0.17721025850E+02  0.47000000000E+01 0.  1.
         -5    1    4    4    0  501 -0.30276923989E+02 -0.10851042587E+02  0.59364610874E+02  0.67680752623E+02  0.47000000000E+01 0.  1.
         12    1    5    5    0    0  0.54739906676E+01 -0.61188579934E+01  0.87893633708E+02  0.88276247334E+02  0.00000000000E+00 0.  1.
        -12    1    5    5    0    0  0.10085507579E+02  0.83148004883E+01 -0.60587518741E+01  0.14407006787E+02  0.00000000000E+00 0.  1.
<mgrwt>
<rscale>  0 0.12499492E+03</rscale>
<asrwt>0</asrwt>
<pdfrwt beam="1">  1       21 0.25279055E-01 0.12499492E+03</pdfrwt>
<pdfrwt beam="2">  1       21 0.36571028E-02 0.12499492E+03</pdfrwt>
<totfact> 0.66244462E+06</totfact>
</mgrwt>
</event>
<event>
 9    1  0.4541185E-002  0.1250008E+03  0.7818608E-02  0.1235068E+00
         21   -1    0    0  503  502  0.00000000000E+00  0.00000000000E+00  0.18112267363E+01  0.18112267363E+01  0.00000000000E+00 0. -1.
         21   -1    0    0  502  503 -0.00000000000E+00 -0.00000000000E+00 -0.21567142393E+04  0.21567142393E+04  0.00000000000E+00 0. -1.
         25    2    1    2    0    0  0.00000000000E+00  0.17763568394E-14 -0.21549030125E+04  0.21585254660E+04  0.12500077588E+03 0.  0.
    9000006    2    3    3    0    0 -0.14611893213E+02 -0.42451465710E+01 -0.12267383321E+04  0.12282990252E+04  0.60000260343E+02 0.  0.
    9000007    2    3    3    0    0  0.14611893213E+02  0.42451465710E+01 -0.92816468040E+03  0.93022644074E+03  0.60000236870E+02 0.  0.
          5    1    4    4  501    0 -0.36693882430E+02 -0.25786190944E+01 -0.90849875695E+03  0.90925528410E+03  0.47000000000E+01 0. -1.
         -5    1    4    4    0  501  0.22081989217E+02 -0.16665274766E+01 -0.31823957517E+03  0.31904374115E+03  0.47000000000E+01 0. -1.
         12    1    5    5    0    0  0.17440883684E+01  0.29102336998E+02 -0.65087481384E+03  0.65152744467E+03  0.00000000000E+00 0. -1.
        -12    1    5    5    0    0  0.12867804845E+02 -0.24857190428E+02 -0.27728986656E+03  0.27869899608E+03  0.00000000000E+00 0. -1.
<mgrwt>
<rscale>  0 0.12500078E+03</rscale>
<asrwt>0</asrwt>
<pdfrwt beam="1">  1       21 0.27864980E-03 0.12500078E+03</pdfrwt>
<pdfrwt beam="2">  1       21 0.33180275E+00 0.12500078E+03</pdfrwt>
<totfact> 0.65029079E+05</totfact>
</mgrwt>
</event>
<event>
 9    1  0.4541185E-002  0.1250059E+03  0.7818608E-02  0.1235060E+00
         21   -1    0    0  503  502  0.00000000000E+00  0.00000000000E+00  0.69265404375E+01  0.69265404375E+01  0.00000000000E+00 0. -1.
         21   -1    0    0  502  503 -0.00000000000E+00 -0.00000000000E+00 -0.56400728738E+03  0.56400728738E+03  0.00000000000E+00 0. -1.
         25    2    1    2    0    0 -0.35527136788E-14  0.17763568394E-14 -0.55708074694E+03  0.57093382782E+03  0.12500590839E+03 0.  0.
    9000006    2    3    3    0    0 -0.16684417099E+02  0.13988576565E+01 -0.25514044291E+03  0.26263484173E+03  0.60000732530E+02 0.  0.
    9000007    2    3    3    0    0  0.16684417099E+02 -0.13988576565E+01 -0.30194030403E+03  0.30829898609E+03  0.59999925403E+02 0.  0.
          5    1    4    4  501    0 -0.22777976248E+02 -0.23840166355E+02 -0.10383240518E+03  0.10904333130E+03  0.47000000000E+01 0. -1.
         -5    1    4    4    0  501  0.60935591488E+01  0.25239024011E+02 -0.15130803773E+03  0.15359151044E+03  0.47000000000E+01 0. -1.
         12    1    5    5    0    0  0.32182533385E+02 -0.13102861756E+02 -0.25704662038E+03  0.25938458993E+03  0.00000000000E+00 0.  1.
        -12    1    5    5    0    0 -0.15498116286E+02  0.11704004099E+02 -0.44893683647E+02  0.48914396161E+02  0.00000000000E+00 0.  1.
<mgrwt>
<rscale>  0 0.12500591E+03</rscale>
<asrwt>0</asrwt>
<pdfrwt beam="1">  1       21 0.10656217E-02 0.12500591E+03</pdfrwt>
<pdfrwt beam="2">  1       21 0.86770341E-01 0.12500591E+03</pdfrwt>
<totfact> 0.38435351E+06</totfact>
</mgrwt>
</event>
<event>
 9    1  0.4541185E-002  0.1250003E+03  0.7818608E-02  0.1235069E+00
         21   -1    0    0  503  502  0.00000000000E+00  0.00000000000E+00  0.85105632912E+01  0.85105632912E+01  0.00000000000E+00 0.  1.
         21   -1    0    0  502  503 -0.00000000000E+00 -0.00000000000E+00 -0.45899042149E+03  0.45899042149E+03  0.00000000000E+00 0.  1.
         25    2    1    2    0    0  0.00000000000E+00  0.88817841970E-15 -0.45047985820E+03  0.46750098478E+03  0.12500027251E+03 0.  0.
    9000006    2    3    3    0    0  0.61688768800E+01  0.52533942209E+01 -0.28324877872E+03  0.28964744154E+03  0.60000971254E+02 0.  0.
    9000007    2    3    3    0    0 -0.61688768800E+01 -0.52533942209E+01 -0.16723107947E+03  0.17785354323E+03  0.59999964225E+02 0.  0.
          5    1    4    4  501    0  0.25522920588E+02  0.12164011429E+02 -0.74276843743E+02  0.79614836343E+02  0.47000000000E+01 0. -1.
         -5    1    4    4    0  501 -0.19354043708E+02 -0.69106172079E+01 -0.20897193498E+03  0.21003260520E+03  0.47000000000E+01 0. -1.
         12    1    5    5    0    0 -0.22512784468E+02  0.15361671242E+01 -0.21887510493E+02  0.31436418205E+02  0.00000000000E+00 0. -1.
        -12    1    5    5    0    0  0.16343907588E+02 -0.67895613452E+01 -0.14534356898E+03  0.14641712503E+03  0.00000000000E+00 0. -1.
<mgrwt>
<rscale>  0 0.12500027E+03</rscale>
<asrwt>0</asrwt>
<pdfrwt beam="1">  1       21 0.13093173E-02 0.12500027E+03</pdfrwt>
<pdfrwt beam="2">  1       21 0.70613919E-01 0.12500027E+03</pdfrwt>
<totfact> 0.43862935E+06</totfact>
</mgrwt>
</event>
<event>
 9    1  0.4541185E-002  0.1250064E+03  0.7818608E-02  0.1235059E+00
         21   -1    0    0  503  502  0.00000000000E+00  0.00000000000E+00  0.11014875567E+03  0.11014875567E+03  0.00000000000E+00 0. -1.
         21   -1    0    0  502  503 -0.00000000000E+00 -0.00000000000E+00 -0.35467039772E+02  0.35467039772E+02  0.00000000000E+00 0. -1.
         25    2    1    2    0    0  0.00000000000E+00 -0.17763568394E-14  0.74681715898E+02  0.14561579544E+03  0.12500640461E+03 0.  0.
    9000006    2    3    3    0    0 -0.90479373275E+01 -0.63221629427E+01  0.53176839682E+02  0.80929414681E+02  0.59999658064E+02 0.  0.
    9000007    2    3    3    0    0  0.90479373275E+01  0.63221629427E+01  0.21504876215E+02  0.64686380761E+02  0.60000277005E+02 0.  0.
          5    1    4    4  501    0 -0.14693412039E+02  0.24661394713E+02  0.27394121384E+02  0.39957585424E+02  0.47000000000E+01 0.  1.
         -5    1    4    4    0  501  0.56454747112E+01 -0.30983557656E+02  0.25782718299E+02  0.40971829256E+02  0.47000000000E+01 0.  1.
         12    1    5    5    0    0 -0.17304833005E+02 -0.13428834446E+02  0.22945559603E+02  0.31722067168E+02  0.00000000000E+00 0. -1.
        -12    1    5    5    0    0  0.26352770333E+02  0.19750997388E+02 -0.14406833875E+01  0.32964313593E+02  0.00000000000E+00 0. -1.
<mgrwt>
<rscale>  0 0.12500640E+03</rscale>
<asrwt>0</asrwt>
<pdfrwt beam="1">  1       21 0.16945962E-01 0.12500640E+03</pdfrwt>
<pdfrwt beam="2">  1       21 0.54564677E-02 0.12500640E+03</pdfrwt>
<totfact> 0.71302755E+06</totfact>
</mgrwt>
</event>
<event>
 9    1  0.4541185E-002  0.1250035E+03  0.7818608E-02  0.1235064E+00
         21   -1    0    0  503  502  0.00000000000E+00  0.00000000000E+00  0.19548289111E+02  0.19548289111E+02  0.00000000000E+00 0.  1.
         21   -1    0    0  502  503 -0.00000000000E+00 -0.00000000000E+00 -0.19983674284E+03  0.19983674284E+03  0.00000000000E+00 0.  1.
         25    2    1    2    0    0  0.00000000000E+00 -0.17763568394E-14 -0.18028845372E+03  0.21938503195E+03  0.12500346274E+03 0.  0.
    9000006    2    3    3    0    0  0.16307878315E+02  0.60180783557E+01 -0.86526201226E+02  0.10671923997E+03  0.60000404315E+02 0.  0.
    9000007    2    3    3    0    0 -0.16307878315E+02 -0.60180783557E+01 -0.93762252498E+02  0.11266579198E+03  0.60000471056E+02 0.  0.
          5    1    4    4  501    0  0.14205052606E+02 -0.14597467831E+02 -0.37223004118E+01  0.21232406999E+02  0.47000000000E+01 0. -1.
         -5    1    4    4    0  501  0.21028257099E+01  0.20615546187E+02 -0.82803900814E+02  0.85486832966E+02  0.47000000000E+01 0. -1.
         12    1    5    5    0    0 -0.35192659759E+02  0.36231932235E+01 -0.33269086703E+02  0.48564214810E+02  0.00000000000E+00 0.  1.
        -12    1    5    5    0    0  0.18884781444E+02 -0.96412715793E+01 -0.60493165796E+02  0.64101577171E+02  0.00000000000E+00 0.  1.
<mgrwt>
<rscale>  0 0.12500346E+03</rscale>
<asrwt>0</asrwt>
<pdfrwt beam="1">  1       21 0.30074291E-02 0.12500346E+03</pdfrwt>
<pdfrwt beam="2">  1       21 0.30744114E-01 0.12500346E+03</pdfrwt>
<totfact> 0.62879945E+06</totfact>
</mgrwt>
</event>
<event>
 9    1  0.4541185E-002  0.1249990E+03  0.7818608E-02  0.1235071E+00
         21   -1    0    0  503  502  0.00000000000E+00  0.00000000000E+00  0.51893313756E+02  0.51893313756E+02  0.00000000000E+00 0. -1.
         21   -1    0    0  502  503 -0.00000000000E+00 -0.00000000000E+00 -0.75273451824E+02  0.75273451824E+02  0.00000000000E+00 0. -1.
         25    2    1    2    0    0 -0.35527136788E-14  0.00000000000E+00 -0.23380138067E+02  0.12716676558E+03  0.12499902164E+03 0.  0.
    9000006    2    3    3    0    0 -0.24352561091E+01  0.16192068465E+02 -0.54051216926E+01  0.62426855612E+02  0.59998195036E+02 0.  0.
    9000007    2    3    3    0    0  0.24352561091E+01 -0.16192068465E+02 -0.17975016375E+02  0.64739909968E+02  0.60000343128E+02 0.  0.
          5    1    4    4  501    0 -0.17815426560E+02 -0.16243193846E+02 -0.87375883323E+01  0.26070408891E+02  0.47000000000E+01 0. -1.
         -5    1    4    4    0  501  0.15380170451E+02  0.32435262312E+02  0.33324666397E+01  0.36356446722E+02  0.47000000000E+01 0. -1.
         12    1    5    5    0    0 -0.28421796578E+02 -0.11561766731E+02 -0.56926849599E+01  0.31207044601E+02  0.00000000000E+00 0. -1.
        -12    1    5    5    0    0  0.30857052687E+02 -0.46303017344E+01 -0.12282331415E+02  0.33532865367E+02  0.00000000000E+00 0. -1.
<mgrwt>
<rscale>  0 0.12499902E+03</rscale>
<asrwt>0</asrwt>
<pdfrwt beam="1">  1       21 0.79835867E-02 0.12499902E+03</pdfrwt>
<pdfrwt beam="2">  1       21 0.11580531E-01 0.12499902E+03</pdfrwt>
<totfact> 0.73748293E+06</totfact>
</mgrwt>
</event>
<event>
 9    1  0.4541185E-002  0.1250003E+03  0.7818608E-02  0.1235069E+00
         21   -1    0    0  503  502  0.00000000000E+00  0.00000000000E+00  0.20976398055E+04  0.20976398055E+04  0.00000000000E+00 0.  1.
         21   -1    0    0  502  503 -0.00000000000E+00 -0.00000000000E+00 -0.18622202560E+01  0.18622202560E+01  0.00000000000E+00 0.  1.
         25    2    1    2    0    0  0.00000000000E+00 -0.17763568394E-14  0.20957775853E+04  0.20995020258E+04  0.12500027737E+03 0.  0.
    9000006    2    3    3    0    0 -0.16929101634E+02 -0.43914801583E+01  0.10590526403E+04  0.10608950499E+04  0.59999436313E+02 0.  0.
    9000007    2    3    3    0    0  0.16929101634E+02  0.43914801583E+01  0.10367249450E+04  0.10386069759E+04  0.59999660706E+02 0.  0.
          5    1    4    4  501    0 -0.23780579995E+02  0.32709067984E+01  0.16805802410E+03  0.16982874986E+03  0.47000000000E+01 0. -1.
         -5    1    4    4    0  501  0.68514783612E+01 -0.76623869567E+01  0.89099461617E+03  0.89106629999E+03  0.47000000000E+01 0. -1.
         12    1    5    5    0    0  0.13335415841E+02 -0.24637958073E+02  0.30104806487E+03  0.30234880462E+03  0.00000000000E+00 0.  1.
        -12    1    5    5    0    0  0.35936857931E+01  0.29029438231E+02  0.73567688012E+03  0.73625817130E+03  0.00000000000E+00 0.  1.
<mgrwt>
<rscale>  0 0.12500028E+03</rscale>
<asrwt>0</asrwt>
<pdfrwt beam="1">  1       21 0.32271193E+00 0.12500028E+03</pdfrwt>
<pdfrwt beam="2">  1       21 0.28649710E-03 0.12500028E+03</pdfrwt>
<totfact> 0.70180377E+05</totfact>
</mgrwt>
</event>
<event>
 9    1  0.4541185E-002  0.1250034E+03  0.7818608E-02  0.1235064E+00
         21   -1    0    0  503  502  0.00000000000E+00  0.00000000000E+00  0.75531427251E+03  0.75531427251E+03  0.00000000000E+00 0. -1.
         21   -1    0    0  502  503 -0.00000000000E+00 -0.00000000000E+00 -0.51719722797E+01  0.51719722797E+01  0.00000000000E+00 0. -1.
         25    2    1    2    0    0  0.00000000000E+00 -0.88817841970E-15  0.75014230023E+03  0.76048624479E+03  0.12500343163E+03 0.  0.
    9000006    2    3    3    0    0  0.15723011466E+02 -0.11338370778E+01  0.32873993754E+03  0.33454207806E+03  0.59999639892E+02 0.  0.
    9000007    2    3    3    0    0 -0.15723011466E+02  0.11338370778E+01  0.42140236270E+03  0.42594416673E+03  0.59999860070E+02 0.  0.
          5    1    4    4  501    0  0.33166893023E+02 -0.64554039943E+01  0.28340383842E+03  0.28544971652E+03  0.47000000000E+01 0.  1.
         -5    1    4    4    0  501 -0.17443881557E+02  0.53215669165E+01  0.45336099118E+02  0.49092361539E+02  0.47000000000E+01 0.  1.
         12    1    5    5    0    0 -0.20392689830E+02 -0.25569150019E+02  0.28529547321E+03  0.28716397800E+03  0.00000000000E+00 0. -1.
        -12    1    5    5    0    0  0.46696783634E+01  0.26702987097E+02  0.13610688949E+03  0.13878018873E+03  0.00000000000E+00 0. -1.
<mgrwt>
<rscale>  0 0.12500343E+03</rscale>
<asrwt>0</asrwt>
<pdfrwt beam="1">  1       21 0.11620211E+00 0.12500343E+03</pdfrwt>
<pdfrwt beam="2">  1       21 0.79568864E-03 0.12500343E+03</pdfrwt>
<totfact> 0.30700843E+06</totfact>
</mgrwt>
</event>
<event>
 9    1  0.4541185E-002  0.1249998E+03  0.7818608E-02  0.1235070E+00
         21   -1    0    0  503  502  0.00000000000E+00  0.00000000000E+00  0.92792945336E+01  0.92792945336E+01  0.00000000000E+00 0. -1.
         21   -1    0    0  502  503 -0.00000000000E+00 -0.00000000000E+00 -0.42096263994E+03  0.42096263994E+03  0.00000000000E+00 0. -1.
         25    2    1    2    0    0  0.35527136788E-14  0.35527136788E-14 -0.41168334540E+03  0.43024193447E+03  0.12499978118E+03 0.  0.
    9000006    2    3    3    0    0 -0.16043494581E+02  0.40617106274E+00 -0.22987202020E+03  0.23811493219E+03  0.60000138049E+02 0.  0.
    9000007    2    3    3    0    0  0.16043494581E+02 -0.40617106274E+00 -0.18181132520E+03  0.19212700228E+03  0.59998902834E+02 0.  0.
          5    1    4    4  501    0  0.81055368163E+01  0.20872917859E+02 -0.15515416914E+03  0.15683202680E+03  0.47000000000E+01 0.  1.
         -5    1    4    4    0  501 -0.24149031397E+02 -0.20466746796E+02 -0.74717851059E+02  0.81282905391E+02  0.47000000000E+01 0.  1.
         12    1    5    5    0    0  0.27273144059E+02  0.19609112700E+02 -0.65919798673E+02  0.73984873757E+02  0.00000000000E+00 0.  1.
        -12    1    5    5    0    0 -0.11229649478E+02 -0.20015283763E+02 -0.11589152653E+03  0.11814212853E+03  0.00000000000E+00 0.  1.
<mgrwt>
<rscale>  0 0.12499978E+03</rscale>
<asrwt>0</asrwt>
<pdfrwt beam="1">  1       21 0.14275837E-02 0.12499978E+03</pdfrwt>
<pdfrwt beam="2">  1       21 0.64763485E-01 0.12499978E+03</pdfrwt>
<totfact> 0.46098309E+06</totfact>
</mgrwt>
</event>
<event>
 9    1  0.4541185E-002  0.1250101E+03  0.7818608E-02  0.1235053E+00
         21   -1    0    0  503  502  0.00000000000E+00  0.00000000000E+00  0.68680049247E+02  0.68680049247E+02  0.00000000000E+00 0. -1.
         21   -1    0    0  502  503 -0.00000000000E+00 -0.00000000000E+00 -0.56885248393E+02  0.56885248393E+02  0.00000000000E+00 0. -1.
         25    2    1    2    0    0  0.00000000000E+00  0.17763568394E-14  0.11794800853E+02  0.12556529764E+03  0.12501010617E+03 0.  0.
    9000006    2    3    3    0    0  0.12571314500E+02 -0.56780237220E+01 -0.49471101446E+01  0.61763514897E+02  0.59999833100E+02 0.  0.
    9000007    2    3    3    0    0 -0.12571314500E+02  0.56780237220E+01  0.16741910998E+02  0.63801782743E+02  0.60000816625E+02 0.  0.
          5    1    4    4  501    0 -0.85712963997E+00 -0.25672419674E+02 -0.20073098225E+02  0.32936713186E+02  0.47000000000E+01 0.  1.
         -5    1    4    4    0  501  0.13428444140E+02  0.19994395952E+02  0.15125988080E+02  0.28826801711E+02  0.47000000000E+01 0.  1.
         12    1    5    5    0    0  0.20685008640E+02  0.79294892309E+01 -0.65930157651E+01  0.23113075061E+02  0.00000000000E+00 0. -1.
        -12    1    5    5    0    0 -0.33256323140E+02 -0.22514655088E+01  0.23334926763E+02  0.40688707681E+02  0.00000000000E+00 0. -1.
<mgrwt>
<rscale>  0 0.12501011E+03</rscale>
<asrwt>0</asrwt>
<pdfrwt beam="1">  1       21 0.10566161E-01 0.12501011E+03</pdfrwt>
<pdfrwt beam="2">  1       21 0.87515767E-02 0.12501011E+03</pdfrwt>
<totfact> 0.73947224E+06</totfact>
</mgrwt>
</event>
<event>
 9    1  0.4541185E-002  0.1250001E+03  0.7818608E-02  0.1235069E+00
         21   -1    0    0  503  502  0.00000000000E+00  0.00000000000E+00  0.36428230231E+03  0.36428230231E+03  0.00000000000E+00 0. -1.
         21   -1    0    0  502  503 -0.00000000000E+00 -0.00000000000E+00 -0.10723154482E+02  0.10723154482E+02  0.00000000000E+00 0. -1.
         25    2    1    2    0    0  0.17763568394E-14 -0.35527136788E-14  0.35355914782E+03  0.37500545679E+03  0.12500008645E+03 0.  0.
    9000006    2    3    3    0    0  0.62923491882E+01 -0.13908935144E+02  0.15112271583E+03  0.16331325933E+03  0.60000777472E+02 0.  0.
    9000007    2    3    3    0    0 -0.62923491882E+01  0.13908935144E+02  0.20243643199E+03  0.21169219746E+03  0.60000211103E+02 0.  0.
          5    1    4    4  501    0  0.18311921994E+02  0.92664128448E+01  0.18387005503E+02  0.27952904420E+02  0.47000000000E+01 0. -1.
         -5    1    4    4    0  501 -0.12019572806E+02 -0.23175347989E+02  0.13273571033E+03  0.13536035491E+03  0.47000000000E+01 0. -1.
         12    1    5    5    0    0 -0.26402505058E+02  0.21274950055E+02  0.72931799502E+02  0.80428621471E+02  0.00000000000E+00 0. -1.
        -12    1    5    5    0    0  0.20110155870E+02 -0.73660149113E+01  0.12950463249E+03  0.13126357599E+03  0.00000000000E+00 0. -1.
<mgrwt>
<rscale>  0 0.12500009E+03</rscale>
<asrwt>0</asrwt>
<pdfrwt beam="1">  1       21 0.56043422E-01 0.12500009E+03</pdfrwt>
<pdfrwt beam="2">  1       21 0.16497164E-02 0.12500009E+03</pdfrwt>
<totfact> 0.49742981E+06</totfact>
</mgrwt>
</event>
<event>
 9    1  0.4541185E-002  0.1250031E+03  0.7818608E-02  0.1235064E+00
         21   -1    0    0  503  502  0.00000000000E+00  0.00000000000E+00  0.10278196349E+03  0.10278196349E+03  0.00000000000E+00 0. -1.
         21   -1    0    0  502  503 -0.00000000000E+00 -0.00000000000E+00 -0.38007103909E+02  0.38007103909E+02  0.00000000000E+00 0. -1.
         25    2    1    2    0    0  0.00000000000E+00  0.00000000000E+00  0.64774859581E+02  0.14078906740E+03  0.12500311622E+03 0.  0.
    9000006    2    3    3    0    0 -0.90081149253E+01 -0.12686765209E+02  0.41441939134E+02  0.74558457998E+02  0.59995243094E+02 0.  0.
    9000007    2    3    3    0    0  0.90081149253E+01  0.12686765209E+02  0.23332920447E+02  0.66230609401E+02  0.59999735824E+02 0.  0.
          5    1    4    4  501    0 -0.10911539295E+02  0.16758984075E+02 -0.32499824540E+01  0.20798500498E+02  0.47000000000E+01 0. -1.
         -5    1    4    4    0  501  0.19034243695E+01 -0.29445749284E+02  0.44691921588E+02  0.53759957500E+02  0.47000000000E+01 0. -1.
         12    1    5    5    0    0  0.76975805835E+01  0.72142780092E+01 -0.19958383179E+02  0.22575110479E+02  0.00000000000E+00 0.  1.
        -12    1    5    5    0    0  0.13105343418E+01  0.54724872002E+01  0.43291303626E+02  0.43655498921E+02  0.00000000000E+00 0.  1.
<mgrwt>
<rscale>  0 0.12500312E+03</rscale>
<asrwt>0</asrwt>
<pdfrwt beam="1">  1       21 0.15812610E-01 0.12500312E+03</pdfrwt>
<pdfrwt beam="2">  1       21 0.58472468E-02 0.12500312E+03</pdfrwt>
<totfact> 0.71930754E+06</totfact>
</mgrwt>
</event>
<event>
 9    1  0.4541185E-002  0.1249995E+03  0.7818608E-02  0.1235070E+00
         21   -1    0    0  503  502  0.00000000000E+00  0.00000000000E+00  0.27854130955E+01  0.27854130955E+01  0.00000000000E+00 0.  1.
         21   -1    0    0  502  503 -0.00000000000E+00 -0.00000000000E+00 -0.14023829144E+04  0.14023829144E+04  0.00000000000E+00 0.  1.
         25    2    1    2    0    0  0.00000000000E+00  0.00000000000E+00 -0.13995975013E+04  0.14051683275E+04  0.12499945175E+03 0.  0.
    9000006    2    3    3    0    0  0.17424743319E+02 -0.23914189782E+00 -0.71777674487E+03  0.72049090889E+03  0.60000128693E+02 0.  0.
    9000007    2    3    3    0    0 -0.17424743319E+02  0.23914189782E+00 -0.68182075642E+03  0.68467741859E+03  0.59999539830E+02 0.  0.
          5    1    4    4  501    0 -0.15622548895E+02 -0.17385673077E+02 -0.34769749828E+03  0.34851393942E+03  0.47000000000E+01 0.  1.
         -5    1    4    4    0  501  0.33047292214E+02  0.17146531179E+02 -0.37007924659E+03  0.37197696946E+03  0.47000000000E+01 0.  1.
         12    1    5    5    0    0  0.33520749829E+01  0.27735417625E+02 -0.28829486515E+03  0.28964533324E+03  0.00000000000E+00 0.  1.
        -12    1    5    5    0    0 -0.20776818301E+02 -0.27496275727E+02 -0.39352589127E+03  0.39503208535E+03  0.00000000000E+00 0.  1.
<mgrwt>
<rscale>  0 0.12499945E+03</rscale>
<asrwt>0</asrwt>
<pdfrwt beam="1">  1       21 0.42852343E-03 0.12499945E+03</pdfrwt>
<pdfrwt beam="2">  1       21 0.21575205E+00 0.12499945E+03</pdfrwt>
<totfact> 0.15460996E+06</totfact>
</mgrwt>
</event>
<event>
 9    1  0.4541185E-002  0.1250004E+03  0.7818608E-02  0.1235069E+00
         21   -1    0    0  503  502  0.00000000000E+00  0.00000000000E+00  0.38437413654E+03  0.38437413654E+03  0.00000000000E+00 0.  1.
         21   -1    0    0  502  503 -0.00000000000E+00 -0.00000000000E+00 -0.10162687712E+02  0.10162687712E+02  0.00000000000E+00 0.  1.
         25    2    1    2    0    0  0.00000000000E+00  0.88817841970E-15  0.37421144883E+03  0.39453682426E+03  0.12500038903E+03 0.  0.
    9000006    2    3    3    0    0  0.10212866963E+02 -0.53599002050E+01  0.14555257209E+03  0.15785597072E+03  0.59999375559E+02 0.  0.
    9000007    2    3    3    0    0 -0.10212866963E+02  0.53599002050E+01  0.22865887674E+03  0.23668085354E+03  0.59999277805E+02 0.  0.
          5    1    4    4  501    0  0.85317795831E+01 -0.27144970041E+02  0.12209930513E+03  0.12545904102E+03  0.47000000000E+01 0. -1.
         -5    1    4    4    0  501  0.16810873799E+01  0.21785069836E+02  0.23453266962E+02  0.32396929696E+02  0.47000000000E+01 0. -1.
         12    1    5    5    0    0 -0.17408739766E+02 -0.50498626896E+01  0.17673678019E+02  0.25316481354E+02  0.00000000000E+00 0. -1.
        -12    1    5    5    0    0  0.71958728032E+01  0.10409762895E+02  0.21098519872E+03  0.21136437218E+03  0.00000000000E+00 0. -1.
<mgrwt>
<rscale>  0 0.12500039E+03</rscale>
<asrwt>0</asrwt>
<pdfrwt beam="1">  1       21 0.59134471E-01 0.12500039E+03</pdfrwt>
<pdfrwt beam="2">  1       21 0.15634907E-02 0.12500039E+03</pdfrwt>
<totfact> 0.48405374E+06</totfact>
</mgrwt>
</event>
<event>
 9    1  0.4541185E-002  0.1249972E+03  0.7818608E-02  0.1235074E+00
         21   -1    0    0  503  502  0.00000000000E+00  0.00000000000E+00  0.34929449840E+02  0.34929449840E+02  0.00000000000E+00 0. -1.
         21   -1    0    0  502  503 -0.00000000000E+00 -0.00000000000E+00 -0.11182760916E+03  0.11182760916E+03  0.00000000000E+00 0. -1.
         25    2    1    2    0    0  0.00000000000E+00  0.00000000000E+00 -0.76898159324E+02  0.14675705900E+03  0.12499722981E+03 0.  0.
    9000006    2    3    3    0    0  0.39169462442E+01  0.13224883140E+02 -0.51078912797E+02  0.79996184538E+02  0.60000785047E+02 0.  0.
    9000007    2    3    3    0    0 -0.39169462442E+01 -0.13224883140E+02 -0.25819246527E+02  0.66760874465E+02  0.60001173873E+02 0.  0.
          5    1    4    4  501    0  0.24619561763E+02 -0.26714764037E+01 -0.33959752543E+01  0.25433880071E+02  0.47000000000E+01 0.  1.
         -5    1    4    4    0  501 -0.20702615518E+02  0.15896359544E+02 -0.47682937543E+02  0.54562304467E+02  0.47000000000E+01 0.  1.
         12    1    5    5    0    0 -0.19606663787E+02 -0.27822931760E+02 -0.29468949472E+02  0.45021725639E+02  0.00000000000E+00 0.  1.
        -12    1    5    5    0    0  0.15689717542E+02  0.14598048620E+02  0.36497029452E+01  0.21739148825E+02  0.00000000000E+00 0.  1.
<mgrwt>
<rscale>  0 0.12499723E+03</rscale>
<asrwt>0</asrwt>
<pdfrwt beam="1">  1       21 0.53737616E-02 0.12499723E+03</pdfrwt>
<pdfrwt beam="2">  1       21 0.17204247E-01 0.12499723E+03</pdfrwt>
<totfact> 0.71174012E+06</totfact>
</mgrwt>
</event>
<event>
 9    1  0.4541185E-002  0.1249942E+03  0.7818608E-02  0.1235078E+00
         21   -1    0    0  503  502  0.00000000000E+00  0.00000000000E+00  0.21920301472E+03  0.21920301472E+03  0.00000000000E+00 0.  1.
         21   -1    0    0  502  503 -0.00000000000E+00 -0.00000000000E+00 -0.17818598770E+02  0.17818598770E+02  0.00000000000E+00 0.  1.
         25    2    1    2    0    0 -0.35527136788E-14 -0.88817841970E-15  0.20138441595E+03  0.23702161350E+03  0.12499424897E+03 0.  0.
    9000006    2    3    3    0    0  0.12234774227E+02  0.75017459993E+01  0.81726002235E+02  0.10239585311E+03  0.59998378309E+02 0.  0.
    9000007    2    3    3    0    0 -0.12234774227E+02 -0.75017459993E+01  0.11965841372E+03  0.13462576038E+03  0.59999945763E+02 0.  0.
          5    1    4    4  501    0 -0.18844278928E+02 -0.54718290534E+01  0.89621988625E+01  0.22078468469E+02  0.47000000000E+01 0.  1.
         -5    1    4    4    0  501  0.31079053154E+02  0.12973575053E+02  0.72763803372E+02  0.80317384643E+02  0.47000000000E+01 0.  1.
         12    1    5    5    0    0  0.51615371889E+01  0.17904235401E+02  0.10888424689E+02  0.21581494472E+02  0.00000000000E+00 0. -1.
        -12    1    5    5    0    0 -0.17396311415E+02 -0.25405981400E+02  0.10876998903E+03  0.11304426591E+03  0.00000000000E+00 0. -1.
<mgrwt>
<rscale>  0 0.12499425E+03</rscale>
<asrwt>0</asrwt>
<pdfrwt beam="1">  1       21 0.33723539E-01 0.12499425E+03</pdfrwt>
<pdfrwt beam="2">  1       21 0.27413230E-02 0.12499425E+03</pdfrwt>
<totfact> 0.61130942E+06</totfact>
</mgrwt>
</event>
<event>
 9    1  0.4541185E-002  0.1250052E+03  0.7818608E-02  0.1235061E+00
         21   -1    0    0  503  502  0.00000000000E+00  0.00000000000E+00  0.23990643152E+02  0.23990643152E+02  0.00000000000E+00 0. -1.
         21   -1    0    0  502  503 -0.00000000000E+00 -0.00000000000E+00 -0.16283746437E+03  0.16283746437E+03  0.00000000000E+00 0. -1.
         25    2    1    2    0    0  0.00000000000E+00  0.17763568394E-14 -0.13884682122E+03  0.18682810752E+03  0.12500520788E+03 0.  0.
    9000006    2    3    3    0    0  0.14706880526E+00  0.14804227821E+02 -0.83401802043E+02  0.10380261623E+03  0.59999464674E+02 0.  0.
    9000007    2    3    3    0    0 -0.14706880526E+00 -0.14804227821E+02 -0.55445019176E+02  0.83025491296E+02  0.59999127184E+02 0.  0.
          5    1    4    4  501    0  0.17870280373E+02  0.30468147870E+02 -0.62239954281E+02  0.71718594967E+02  0.47000000000E+01 0.  1.
         -5    1    4    4    0  501 -0.17723211567E+02 -0.15663920048E+02 -0.21161847762E+02  0.32084021260E+02  0.47000000000E+01 0.  1.
         12    1    5    5    0    0 -0.35222393681E+01 -0.21185750837E+02  0.50818682816E+01  0.22069607924E+02  0.00000000000E+00 0. -1.
        -12    1    5    5    0    0  0.33751705629E+01  0.63815230154E+01 -0.60526887458E+02  0.60955883372E+02  0.00000000000E+00 0. -1.
<mgrwt>
<rscale>  0 0.12500521E+03</rscale>
<asrwt>0</asrwt>
<pdfrwt beam="1">  1       21 0.36908681E-02 0.12500521E+03</pdfrwt>
<pdfrwt beam="2">  1       21 0.25051918E-01 0.12500521E+03</pdfrwt>
<totfact> 0.66367975E+06</totfact>
</mgrwt>
</event>
<event>
 9    1  0.4541185E-002  0.1249999E+03  0.7818608E-02  0.1235069E+00
         21   -1    0    0  503  502  0.00000000000E+00  0.00000000000E+00  0.73430694277E+01  0.73430694277E+01  0.00000000000E+00 0.  1.
         21   -1    0    0  502  503 -0.00000000000E+00 -0.00000000000E+00 -0.53196358738E+03  0.53196358738E+03  0.00000000000E+00 0.  1.
         25    2    1    2    0    0 -0.35527136788E-14  0.00000000000E+00 -0.52462051796E+03  0.53930665681E+03  0.12499992888E+03 0.  0.
    9000006    2    3    3    0    0 -0.13041916648E+02 -0.11344377686E+02 -0.27391218434E+03  0.28093973414E+03  0.60003858165E+02 0.  0.
    9000007    2    3    3    0    0  0.13041916648E+02  0.11344377686E+02 -0.25070833362E+03  0.25836692267E+03  0.60000097419E+02 0.  0.
          5    1    4    4  501    0  0.20037001031E+02 -0.11395281626E+02 -0.60229955923E+02  0.64661205093E+02  0.47000000000E+01 0. -1.
         -5    1    4    4    0  501 -0.33078917679E+02  0.50903939934E-01 -0.21368222842E+03  0.21627852905E+03  0.47000000000E+01 0. -1.
         12    1    5    5    0    0 -0.21474825051E+02 -0.54484404265E+01 -0.12430319169E+03  0.12626217596E+03  0.00000000000E+00 0.  1.
        -12    1    5    5    0    0  0.34516741699E+02  0.16792818113E+02 -0.12640514193E+03  0.13210474671E+03  0.00000000000E+00 0.  1.
<mgrwt>
<rscale>  0 0.12499993E+03</rscale>
<asrwt>0</asrwt>
<pdfrwt beam="1">  1       21 0.11297029E-02 0.12499993E+03</pdfrwt>
<pdfrwt beam="2">  1       21 0.81840558E-01 0.12499993E+03</pdfrwt>
<totfact> 0.39989647E+06</totfact>
</mgrwt>
</event>
<event>
 9    1  0.4541185E-002  0.1250023E+03  0.7818608E-02  0.1235066E+00
         21   -1    0    0  503  502  0.00000000000E+00  0.00000000000E+00  0.16431250031E+02  0.16431250031E+02  0.00000000000E+00 0.  1.
         21   -1    0    0  502  503 -0.00000000000E+00 -0.00000000000E+00 -0.23774160239E+03  0.23774160239E+03  0.00000000000E+00 0.  1.
         25    2    1    2    0    0  0.00000000000E+00  0.00000000000E+00 -0.22131035236E+03  0.25417285242E+03  0.12500226737E+03 0.  0.
    9000006    2    3    3    0    0  0.96025834930E+01  0.83836026819E+01 -0.13504089714E+03  0.14831958188E+03  0.60001333861E+02 0.  0.
    9000007    2    3    3    0    0 -0.96025834930E+01 -0.83836026819E+01 -0.86269455222E+02  0.10585327054E+03  0.60000013139E+02 0.  0.
          5    1    4    4  501    0  0.28000814899E+01  0.32800539607E+02 -0.55437838044E+02  0.64646420952E+02  0.47000000000E+01 0. -1.
         -5    1    4    4    0  501  0.68025020031E+01 -0.24416936925E+02 -0.79603059096E+02  0.83673160929E+02  0.47000000000E+01 0. -1.
         12    1    5    5    0    0 -0.30538502840E+02  0.63532969375E+01 -0.26865548743E+02  0.41167004348E+02  0.00000000000E+00 0. -1.
        -12    1    5    5    0    0  0.20935919348E+02 -0.14736899619E+02 -0.59403906479E+02  0.64686266195E+02  0.00000000000E+00 0. -1.
<mgrwt>
<rscale>  0 0.12500227E+03</rscale>
<asrwt>0</asrwt>
<pdfrwt beam="1">  1       21 0.25278846E-02 0.12500227E+03</pdfrwt>
<pdfrwt beam="2">  1       21 0.36575631E-01 0.12500227E+03</pdfrwt>
<totfact> 0.59484132E+06</totfact>
</mgrwt>
</event>
<event>
 9    1  0.4541185E-002  0.1249994E+03  0.7818608E-02  0.1235070E+00
         21   -1    0    0  503  502  0.00000000000E+00  0.00000000000E+00  0.64217200825E+03  0.64217200825E+03  0.00000000000E+00 0. -1.
         21   -1    0    0  502  503 -0.00000000000E+00 -0.00000000000E+00 -0.60828114081E+01  0.60828114081E+01  0.00000000000E+00 0. -1.
         25    2    1    2    0    0  0.00000000000E+00  0.00000000000E+00  0.63608919684E+03  0.64825481966E+03  0.12499937948E+03 0.  0.
    9000006    2    3    3    0    0  0.25652031547E+01  0.17101343350E+02  0.30416957574E+03  0.31051284342E+03  0.60000490894E+02 0.  0.
    9000007    2    3    3    0    0 -0.25652031547E+01 -0.17101343350E+02  0.33191962109E+03  0.33774197624E+03  0.59999761943E+02 0.  0.
          5    1    4    4  501    0  0.23919621723E+01 -0.22139350598E+02  0.12214348494E+03  0.12424569707E+03  0.47000000000E+01 0. -1.
         -5    1    4    4    0  501  0.17324098247E+00  0.39240693948E+02  0.18202609080E+03  0.18626714634E+03  0.47000000000E+01 0. -1.
         12    1    5    5    0    0 -0.26837792000E+02  0.48245826553E+00  0.88417091828E+02  0.92401742260E+02  0.00000000000E+00 0.  1.
        -12    1    5    5    0    0  0.24272588845E+02 -0.17583801616E+02  0.24350252927E+03  0.24534023398E+03  0.00000000000E+00 0.  1.
<mgrwt>
<rscale>  0 0.12499938E+03</rscale>
<asrwt>0</asrwt>
<pdfrwt beam="1">  1       21 0.98795640E-01 0.12499938E+03</pdfrwt>
<pdfrwt beam="2">  1       21 0.93581765E-03 0.12499938E+03</pdfrwt>
<totfact> 0.34997770E+06</totfact>
</mgrwt>
</event>
<event>
 9    1  0.4541185E-002  0.1249915E+03  0.7818608E-02  0.1235083E+00
         21   -1    0    0  503  502  0.00000000000E+00  0.00000000000E+00  0.28357702206E+03  0.28357702206E+03  0.00000000000E+00 0. -1.
         21   -1    0    0  502  503 -0.00000000000E+00 -0.00000000000E+00 -0.13773051682E+02  0.13773051682E+02  0.00000000000E+00 0. -1.
         25    2    1    2    0    0  0.00000000000E+00  0.00000000000E+00  0.26980397038E+03  0.29735007374E+03  0.12499153541E+03 0.  0.
    9000006    2    3    3    0    0  0.15783954738E+02  0.42510809693E+01  0.14966390015E+03  0.16206924553E+03  0.59999603529E+02 0.  0.
    9000007    2    3    3    0    0 -0.15783954738E+02 -0.42510809693E+01  0.12014007023E+03  0.13528082821E+03  0.60000509078E+02 0.  0.
          5    1    4    4  501    0 -0.18222194759E+02 -0.13098000609E+02  0.68875111236E+02  0.72591163027E+02  0.47000000000E+01 0. -1.
         -5    1    4    4    0  501  0.34006149497E+02  0.17349081578E+02  0.80788788911E+02  0.89478082506E+02  0.47000000000E+01 0. -1.
         12    1    5    5    0    0  0.13546425721E+01 -0.10502729152E+02  0.11611752368E+03  0.11659940686E+03  0.00000000000E+00 0.  1.
        -12    1    5    5    0    0 -0.17138597310E+02  0.62516481828E+01  0.40225465548E+01  0.18681421347E+02  0.00000000000E+00 0.  1.
<mgrwt>
<rscale>  0 0.12499154E+03</rscale>
<asrwt>0</asrwt>
<pdfrwt beam="1">  1       21 0.43627230E-01 0.12499154E+03</pdfrwt>
<pdfrwt beam="2">  1       21 0.21189312E-02 0.12499154E+03</pdfrwt>
<totfact> 0.55688961E+06</totfact>
</mgrwt>
</event>
<event>
 9    1  0.4541185E-002  0.1249950E+03  0.7818608E-02  0.1235077E+00
         21   -1    0    0  503  502  0.00000000000E+00  0.00000000000E+00  0.51511855630E+03  0.51511855630E+03  0.00000000000E+00 0.  1.
         21   -1    0    0  502  503 -0.00000000000E+00 -0.00000000000E+00 -0.75826047355E+01  0.75826047355E+01  0.00000000000E+00 0.  1.
         25    2    1    2    0    0  0.35527136788E-14  0.00000000000E+00  0.50753595156E+03  0.52270116103E+03  0.12499504637E+03 0.  0.
    9000006    2    3    3    0    0  0.13729661272E+02 -0.83913056700E+01  0.28237864966E+03  0.28913079010E+03  0.59999953263E+02 0.  0.
    9000007    2    3    3    0    0 -0.13729661272E+02  0.83913056700E+01  0.22515730190E+03  0.23357037093E+03  0.60003249642E+02 0.  0.
          5    1    4    4  501    0  0.24369956752E+02  0.16554272570E+02  0.90560749346E+02  0.95348193767E+02  0.47000000000E+01 0. -1.
         -5    1    4    4    0  501 -0.10640295480E+02 -0.24945578240E+02  0.19181790031E+03  0.19378259634E+03  0.47000000000E+01 0. -1.
         12    1    5    5    0    0 -0.25059943708E+01  0.15810816344E+02  0.21750257179E+03  0.21809087706E+03  0.00000000000E+00 0. -1.
        -12    1    5    5    0    0 -0.11223666901E+02 -0.74195106737E+01  0.76547301060E+01  0.15479493866E+02  0.00000000000E+00 0. -1.
<mgrwt>
<rscale>  0 0.12499505E+03</rscale>
<asrwt>0</asrwt>
<pdfrwt beam="1">  1       21 0.79248981E-01 0.12499505E+03</pdfrwt>
<pdfrwt beam="2">  1       21 0.11665550E-02 0.12499505E+03</pdfrwt>
<totfact> 0.40844146E+06</totfact>
</mgrwt>
</event>
<event>
 9    1  0.4541185E-002  0.1250103E+03  0.7818608E-02  0.1235053E+00
         21   -1    0    0  503  502  0.00000000000E+00  0.00000000000E+00  0.14711125729E+04  0.14711125729E+04  0.00000000000E+00 0. -1.
         21   -1    0    0  502  503 -0.00000000000E+00 -0.00000000000E+00 -0.26557389769E+01  0.26557389769E+01  0.00000000000E+00 0. -1.
         25    2    1    2    0    0  0.17763568394E-14  0.88817841970E-15  0.14684568339E+04  0.14737683119E+04  0.12501025557E+03 0.  0.
    9000006    2    3    3    0    0 -0.15002780518E+02 -0.14391078823E+00  0.84093237755E+03  0.84320363244E+03  0.59999983393E+02 0.  0.
    9000007    2    3    3    0    0  0.15002780518E+02  0.14391078823E+00  0.62752445638E+03  0.63056467945E+03  0.59998062293E+02 0.  0.
          5    1    4    4  501    0 -0.40713891715E+01  0.50978759075E+01  0.80415964578E+03  0.80419984485E+03  0.47000000000E+01 0.  1.
         -5    1    4    4    0  501 -0.10931391346E+02 -0.52417866958E+01  0.36772731766E+02  0.39003787586E+02  0.47000000000E+01 0.  1.
         12    1    5    5    0    0  0.28629088831E+02 -0.20797548047E+02  0.43275011926E+03  0.43419445926E+03  0.00000000000E+00 0. -1.
        -12    1    5    5    0    0 -0.13626308314E+02  0.20941458835E+02  0.19477433711E+03  0.19637022018E+03  0.00000000000E+00 0. -1.
<mgrwt>
<rscale>  0 0.12501026E+03</rscale>
<asrwt>0</asrwt>
<pdfrwt beam="1">  1       21 0.22632436E+00 0.12501026E+03</pdfrwt>
<pdfrwt beam="2">  1       21 0.40857640E-03 0.12501026E+03</pdfrwt>
<totfact> 0.14382811E+06</totfact>
</mgrwt>
</event>
<event>
 9    1  0.4541185E-002  0.1250158E+03  0.7818608E-02  0.1235045E+00
         21   -1    0    0  503  502  0.00000000000E+00  0.00000000000E+00  0.29951573983E+03  0.29951573983E+03  0.00000000000E+00 0.  1.
         21   -1    0    0  502  503 -0.00000000000E+00 -0.00000000000E+00 -0.13045173196E+02  0.13045173196E+02  0.00000000000E+00 0.  1.
         25    2    1    2    0    0  0.88817841970E-15  0.17763568394E-14  0.28647056663E+03  0.31256091302E+03  0.12501575422E+03 0.  0.
    9000006    2    3    3    0    0  0.48485636524E+01  0.15902513335E+02  0.12935545323E+03  0.14355906039E+03  0.59999766998E+02 0.  0.
    9000007    2    3    3    0    0 -0.48485636524E+01 -0.15902513335E+02  0.15711511340E+03  0.16900185263E+03  0.60000573617E+02 0.  0.
          5    1    4    4  501    0 -0.30263308984E+01 -0.29702182783E+01  0.12069213285E+03  0.12085802335E+03  0.47000000000E+01 0.  1.
         -5    1    4    4    0  501  0.78748945508E+01  0.18872731613E+02  0.86633203762E+01  0.22701037040E+02  0.47000000000E+01 0.  1.
         12    1    5    5    0    0 -0.10639679002E+02 -0.37483478900E+02  0.85016261517E+02  0.93519937350E+02  0.00000000000E+00 0. -1.
        -12    1    5    5    0    0  0.57911153492E+01  0.21580965565E+02  0.72098851882E+02  0.75481915281E+02  0.00000000000E+00 0. -1.
<mgrwt>
<rscale>  0 0.12501575E+03</rscale>
<asrwt>0</asrwt>
<pdfrwt beam="1">  1       21 0.46079339E-01 0.12501575E+03</pdfrwt>
<pdfrwt beam="2">  1       21 0.20069500E-02 0.12501575E+03</pdfrwt>
<totfact> 0.54406653E+06</totfact>
</mgrwt>
</event>
<event>
 9    1  0.4541185E-002  0.1249997E+03  0.7818608E-02  0.1235070E+00
         21   -1    0    0  503  502  0.00000000000E+00  0.00000000000E+00  0.14803813388E+02  0.14803813388E+02  0.00000000000E+00 0.  1.
         21   -1    0    0  502  503 -0.00000000000E+00 -0.00000000000E+00 -0.26386638242E+03  0.26386638242E+03  0.00000000000E+00 0.  1.
         25    2    1    2    0    0 -0.35527136788E-14 -0.26645352591E-14 -0.24906256903E+03  0.27867019581E+03  0.12499965895E+03 0.  0.
    9000006    2    3    3    0    0  0.15599474720E+02 -0.53836342495E+01 -0.13749355427E+03  0.15091982952E+03  0.59999919559E+02 0.  0.
    9000007    2    3    3    0    0 -0.15599474720E+02  0.53836342495E+01 -0.11156901476E+03  0.12775036629E+03  0.60001532501E+02 0.  0.
          5    1    4    4  501    0  0.10692475174E+01  0.76620297331E+01 -0.12866013256E+03  0.12897817529E+03  0.47000000000E+01 0.  1.
         -5    1    4    4    0  501  0.14530227203E+02 -0.13045663983E+02 -0.88334217079E+01  0.21941654231E+02  0.47000000000E+01 0.  1.
         12    1    5    5    0    0 -0.19655720241E+02  0.26534187514E+02 -0.34613894211E+02  0.47838604888E+02  0.00000000000E+00 0.  1.
        -12    1    5    5    0    0  0.40562455206E+01 -0.21150553264E+02 -0.76955120547E+02  0.79911761397E+02  0.00000000000E+00 0.  1.
<mgrwt>
<rscale>  0 0.12499966E+03</rscale>
<asrwt>0</asrwt>
<pdfrwt beam="1">  1       21 0.22775100E-02 0.12499966E+03</pdfrwt>
<pdfrwt beam="2">  1       21 0.40594824E-01 0.12499966E+03</pdfrwt>
<totfact> 0.57277186E+06</totfact>
</mgrwt>
</event>
<event>
 9    1  0.4541185E-002  0.1249987E+03  0.7818608E-02  0.1235071E+00
         21   -1    0    0  503  502  0.00000000000E+00  0.00000000000E+00  0.57432461380E+01  0.57432461380E+01  0.00000000000E+00 0.  1.
         21   -1    0    0  502  503 -0.00000000000E+00 -0.00000000000E+00 -0.68013240595E+03  0.68013240595E+03  0.00000000000E+00 0.  1.
         25    2    1    2    0    0  0.17763568394E-14  0.17763568394E-14 -0.67438915982E+03  0.68587565209E+03  0.12499868501E+03 0.  0.
    9000006    2    3    3    0    0  0.12811429375E+02  0.11845296410E+02 -0.34440969549E+03  0.35003211116E+03  0.59999972704E+02 0.  0.
    9000007    2    3    3    0    0 -0.12811429375E+02 -0.11845296410E+02 -0.32997946433E+03  0.33584354094E+03  0.59999944505E+02 0.  0.
          5    1    4    4  501    0 -0.35906894673E+01  0.14849368926E+02 -0.31827814658E+03  0.31867925159E+03  0.47000000000E+01 0.  1.
         -5    1    4    4    0  501  0.16402118843E+02 -0.30040725162E+01 -0.26131548913E+02  0.31352859563E+02  0.47000000000E+01 0.  1.
         12    1    5    5    0    0 -0.29820169715E+02 -0.21263557749E+02 -0.27697176277E+03  0.27938278183E+03  0.00000000000E+00 0.  1.
        -12    1    5    5    0    0  0.17008740340E+02  0.94182613388E+01 -0.53007701558E+02  0.56460759108E+02  0.00000000000E+00 0.  1.
<mgrwt>
<rscale>  0 0.12499869E+03</rscale>
<asrwt>0</asrwt>
<pdfrwt beam="1">  1       21 0.88357618E-03 0.12499869E+03</pdfrwt>
<pdfrwt beam="2">  1       21 0.10463577E+00 0.12499869E+03</pdfrwt>
<totfact> 0.33462918E+06</totfact>
</mgrwt>
</event>
<event>
 9    1  0.4541185E-002  0.1249983E+03  0.7818608E-02  0.1235072E+00
         21   -1    0    0  503  502  0.00000000000E+00  0.00000000000E+00  0.11981306463E+03  0.11981306463E+03  0.00000000000E+00 0. -1.
         21   -1    0    0  502  503 -0.00000000000E+00 -0.00000000000E+00 -0.32601966319E+02  0.32601966319E+02  0.00000000000E+00 0. -1.
         25    2    1    2    0    0  0.00000000000E+00  0.17763568394E-14  0.87211098315E+02  0.15241503095E+03  0.12499826395E+03 0.  0.
    9000006    2    3    3    0    0 -0.14649077458E+02  0.90280083824E+01  0.39740725395E+02  0.73996153214E+02  0.60000041915E+02 0.  0.
    9000007    2    3    3    0    0  0.14649077458E+02 -0.90280083824E+01  0.47470372920E+02  0.78418877738E+02  0.59999863957E+02 0.  0.
          5    1    4    4  501    0 -0.25550931674E+02 -0.10488254498E+02 -0.16201615735E+00  0.28017313238E+02  0.47000000000E+01 0. -1.
         -5    1    4    4    0  501  0.10901854216E+02  0.19516262881E+02  0.39902741553E+02  0.45978839977E+02  0.47000000000E+01 0. -1.
         12    1    5    5    0    0  0.25812401365E+02  0.68853654288E+01  0.51998747035E+02  0.58459883805E+02  0.00000000000E+00 0. -1.
        -12    1    5    5    0    0 -0.11163323906E+02 -0.15913373811E+02 -0.45283741151E+01  0.19958993933E+02  0.00000000000E+00 0. -1.
<mgrwt>
<rscale>  0 0.12499826E+03</rscale>
<asrwt>0</asrwt>
<pdfrwt beam="1">  1       21 0.18432779E-01 0.12499826E+03</pdfrwt>
<pdfrwt beam="2">  1       21 0.50156872E-02 0.12499826E+03</pdfrwt>
<totfact> 0.70460244E+06</totfact>
</mgrwt>
</event>
<event>
 9    1  0.4541185E-002  0.1250000E+03  0.7818608E-02  0.1235069E+00
         21   -1    0    0  503  502  0.00000000000E+00  0.00000000000E+00  0.21460955459E+02  0.21460955459E+02  0.00000000000E+00 0.  1.
         21   -1    0    0  502  503 -0.00000000000E+00 -0.00000000000E+00 -0.18201646564E+03  0.18201646564E+03  0.00000000000E+00 0.  1.
         25    2    1    2    0    0  0.17763568394E-14 -0.35527136788E-14 -0.16055551018E+03  0.20347742110E+03  0.12499995619E+03 0.  0.
    9000006    2    3    3    0    0 -0.15375728811E+02 -0.63281040909E+00 -0.93837932418E+02  0.11243852390E+03  0.60000421753E+02 0.  0.
    9000007    2    3    3    0    0  0.15375728811E+02  0.63281040909E+00 -0.66717577762E+02  0.91038897200E+02  0.60000267794E+02 0.  0.
          5    1    4    4  501    0  0.35245308098E+01 -0.25549765486E+02 -0.63131304174E+02  0.68358352822E+02  0.47000000000E+01 0. -1.
         -5    1    4    4    0  501 -0.18900259621E+02  0.24916955076E+02 -0.30706628244E+02  0.44080171076E+02  0.47000000000E+01 0. -1.
         12    1    5    5    0    0  0.42595105107E+01  0.20326136995E+02 -0.18537103395E+00  0.20768477011E+02  0.00000000000E+00 0. -1.
        -12    1    5    5    0    0  0.11116218301E+02 -0.19693326586E+02 -0.66532206728E+02  0.70270420189E+02  0.00000000000E+00 0. -1.
<mgrwt>
<rscale>  0 0.12499996E+03</rscale>
<asrwt>0</asrwt>
<pdfrwt beam="1">  1       21 0.33016854E-02 0.12499996E+03</pdfrwt>
<pdfrwt beam="2">  1       21 0.28002533E-01 0.12499996E+03</pdfrwt>
<totfact> 0.64552458E+06</totfact>
</mgrwt>
</event>
<event>
 9    1  0.4541185E-002  0.1249959E+03  0.7818608E-02  0.1235076E+00
         21   -1    0    0  503  502  0.00000000000E+00  0.00000000000E+00  0.70215120594E+03  0.70215120594E+03  0.00000000000E+00 0. -1.
         21   -1    0    0  502  503 -0.00000000000E+00 -0.00000000000E+00 -0.55628944673E+01  0.55628944673E+01  0.00000000000E+00 0. -1.
         25    2    1    2    0    0 -0.88817841970E-15  0.00000000000E+00  0.69658831147E+03  0.70771410041E+03  0.12499588887E+03 0.  0.
    9000006    2    3    3    0    0 -0.61376740385E+01 -0.18698594226E+01  0.44043336025E+03  0.44454758085E+03  0.59998661729E+02 0.  0.
    9000007    2    3    3    0    0  0.61376740385E+01  0.18698594226E+01  0.25615495123E+03  0.26316651955E+03  0.60000754650E+02 0.  0.
          5    1    4    4  501    0  0.24602752814E+02  0.90692755809E+01  0.16298548945E+03  0.16514813646E+03  0.47000000000E+01 0. -1.
         -5    1    4    4    0  501 -0.30740426853E+02 -0.10939135004E+02  0.27744787080E+03  0.27939944440E+03  0.47000000000E+01 0. -1.
         12    1    5    5    0    0  0.59903553425E+01  0.17029324791E+02  0.21722770669E+02  0.28244663664E+02  0.00000000000E+00 0.  1.
        -12    1    5    5    0    0  0.14731869599E+00 -0.15159465368E+02  0.23443218056E+03  0.23492185589E+03  0.00000000000E+00 0.  1.
<mgrwt>
<rscale>  0 0.12499589E+03</rscale>
<asrwt>0</asrwt>
<pdfrwt beam="1">  1       21 0.10802319E+00 0.12499589E+03</pdfrwt>
<pdfrwt beam="2">  1       21 0.85583047E-03 0.12499589E+03</pdfrwt>
<totfact> 0.32618191E+06</totfact>
</mgrwt>
</event>
<event>
 9    1  0.4541185E-002  0.1250018E+03  0.7818608E-02  0.1235066E+00
         21   -1    0    0  503  502  0.00000000000E+00  0.00000000000E+00  0.14939826681E+03  0.14939826681E+03  0.00000000000E+00 0.  1.
         21   -1    0    0  502  503 -0.00000000000E+00 -0.00000000000E+00 -0.26147302505E+02  0.26147302505E+02  0.00000000000E+00 0.  1.
         25    2    1    2    0    0  0.00000000000E+00  0.00000000000E+00  0.12325096430E+03  0.17554556931E+03  0.12500178680E+03 0.  0.
    9000006    2    3    3    0    0  0.17278613073E+02 -0.13303708579E+01  0.65038070266E+02  0.90167208956E+02  0.59998788576E+02 0.  0.
    9000007    2    3    3    0    0 -0.17278613073E+02  0.13303708579E+01  0.58212894034E+02  0.85378360355E+02  0.60003358479E+02 0.  0.
          5    1    4    4  501    0 -0.21918886448E+02  0.32436970049E+01  0.25502677236E+02  0.34109173247E+02  0.47000000000E+01 0. -1.
         -5    1    4    4    0  501  0.39197499521E+02 -0.45740678628E+01  0.39535393030E+02  0.56058035709E+02  0.47000000000E+01 0. -1.
         12    1    5    5    0    0  0.96640807299E+01 -0.23458240678E+02  0.29069308855E+02  0.38583781948E+02  0.00000000000E+00 0.  1.
        -12    1    5    5    0    0 -0.26942693802E+02  0.24788611536E+02  0.29143585179E+02  0.46794578407E+02  0.00000000000E+00 0.  1.
<mgrwt>
<rscale>  0 0.12500179E+03</rscale>
<asrwt>0</asrwt>
<pdfrwt beam="1">  1       21 0.22984348E-01 0.12500179E+03</pdfrwt>
<pdfrwt beam="2">  1       21 0.40226620E-02 0.12500179E+03</pdfrwt>
<totfact> 0.67663178E+06</totfact>
</mgrwt>
</event>
<event>
 9    1  0.4541185E-002  0.1249944E+03  0.7818608E-02  0.1235078E+00
         21   -1    0    0  503  502  0.00000000000E+00  0.00000000000E+00  0.42592038123E+03  0.42592038123E+03  0.00000000000E+00 0. -1.
         21   -1    0    0  502  503 -0.00000000000E+00 -0.00000000000E+00 -0.91704911283E+01  0.91704911283E+01  0.00000000000E+00 0. -1.
         25    2    1    2    0    0 -0.35527136788E-14  0.35527136788E-14  0.41674989010E+03  0.43509087236E+03  0.12499438511E+03 0.  0.
    9000006    2    3    3    0    0  0.14237494658E+02 -0.93908354523E+01  0.22186471126E+03  0.23046637692E+03  0.59999222881E+02 0.  0.
    9000007    2    3    3    0    0 -0.14237494658E+02  0.93908354523E+01  0.19488517884E+03  0.20462449543E+03  0.60000476282E+02 0.  0.
          5    1    4    4  501    0 -0.18436123906E+02  0.88421103052E+01  0.12052915606E+03  0.12234149354E+03  0.47000000000E+01 0.  1.
         -5    1    4    4    0  501  0.32673618564E+02 -0.18232945757E+02  0.10133555519E+03  0.10812488339E+03  0.47000000000E+01 0.  1.
         12    1    5    5    0    0  0.49561776402E+01  0.23747289685E+02  0.16267983032E+03  0.16447864499E+03  0.00000000000E+00 0. -1.
        -12    1    5    5    0    0 -0.19193672298E+02 -0.14356454233E+02  0.32205348519E+02  0.40145850441E+02  0.00000000000E+00 0. -1.
<mgrwt>
<rscale>  0 0.12499439E+03</rscale>
<asrwt>0</asrwt>
<pdfrwt beam="1">  1       21 0.65526197E-01 0.12499439E+03</pdfrwt>
<pdfrwt beam="2">  1       21 0.14108451E-02 0.12499439E+03</pdfrwt>
<totfact> 0.45804117E+06</totfact>
</mgrwt>
</event>
<event>
 9    1  0.4541185E-002  0.1250005E+03  0.7818608E-02  0.1235068E+00
         21   -1    0    0  503  502  0.00000000000E+00  0.00000000000E+00  0.34590630547E+03  0.34590630547E+03  0.00000000000E+00 0.  1.
         21   -1    0    0  502  503 -0.00000000000E+00 -0.00000000000E+00 -0.11292893202E+02  0.11292893202E+02  0.00000000000E+00 0.  1.
         25    2    1    2    0    0  0.00000000000E+00 -0.17763568394E-14  0.33461341226E+03  0.35719919867E+03  0.12500052745E+03 0.  0.
    9000006    2    3    3    0    0  0.19133424795E+01 -0.15662066485E+02  0.18891859937E+03  0.19884536720E+03  0.60002347166E+02 0.  0.
    9000007    2    3    3    0    0 -0.19133424795E+01  0.15662066485E+02  0.14569481290E+03  0.15835383146E+03  0.59999968568E+02 0.  0.
          5    1    4    4  501    0 -0.11591859771E+02  0.19889537062E+02  0.63726055103E+02  0.67919547970E+02  0.47000000000E+01 0. -1.
         -5    1    4    4    0  501  0.13505202251E+02 -0.35551603547E+02  0.12519254427E+03  0.13092581923E+03  0.47000000000E+01 0. -1.
         12    1    5    5    0    0 -0.25809124410E+02  0.19537208933E+01  0.11138539812E+03  0.11435311471E+03  0.00000000000E+00 0. -1.
        -12    1    5    5    0    0  0.23895781931E+02  0.13708345592E+02  0.34309414772E+02  0.44000716755E+02  0.00000000000E+00 0. -1.
<mgrwt>
<rscale>  0 0.12500053E+03</rscale>
<asrwt>0</asrwt>
<pdfrwt beam="1">  1       21 0.53216347E-01 0.12500053E+03</pdfrwt>
<pdfrwt beam="2">  1       21 0.17373685E-02 0.12500053E+03</pdfrwt>
<totfact> 0.51010436E+06</totfact>
</mgrwt>
</event>
<event>
 9    1  0.4541185E-002  0.1250025E+03  0.7818608E-02  0.1235065E+00
         21   -1    0    0  503  502  0.00000000000E+00  0.00000000000E+00  0.99198430358E+01  0.99198430358E+01  0.00000000000E+00 0.  1.
         21   -1    0    0  502  503 -0.00000000000E+00 -0.00000000000E+00 -0.39379715471E+03  0.39379715471E+03  0.00000000000E+00 0.  1.
         25    2    1    2    0    0  0.00000000000E+00  0.17763568394E-14 -0.38387731168E+03  0.40371699775E+03  0.12500249538E+03 0.  0.
    9000006    2    3    3    0    0 -0.10440696886E+02 -0.13880074542E+02 -0.19902911569E+03  0.20860054942E+03  0.59999464215E+02 0.  0.
    9000007    2    3    3    0    0  0.10440696886E+02  0.13880074542E+02 -0.18484819599E+03  0.19511644833E+03  0.59999235221E+02 0.  0.
          5    1    4    4  501    0  0.11179642140E+02  0.16944191815E+02 -0.10780435851E+03  0.10979963456E+03  0.47000000000E+01 0. -1.
         -5    1    4    4    0  501 -0.21620339026E+02 -0.30824266356E+02 -0.91224757175E+02  0.98800914862E+02  0.47000000000E+01 0. -1.
         12    1    5    5    0    0 -0.84844358480E+01 -0.14827358191E+02 -0.18213983297E+02  0.24971691775E+02  0.00000000000E+00 0. -1.
        -12    1    5    5    0    0  0.18925132734E+02  0.28707432732E+02 -0.16663421269E+03  0.17014475655E+03  0.00000000000E+00 0. -1.
<mgrwt>
<rscale>  0 0.12500250E+03</rscale>
<asrwt>0</asrwt>
<pdfrwt beam="1">  1       21 0.15261296E-02 0.12500250E+03</pdfrwt>
<pdfrwt beam="2">  1       21 0.60584180E-01 0.12500250E+03</pdfrwt>
<totfact> 0.47792798E+06</totfact>
</mgrwt>
</event>
<event>
 9    1  0.4541185E-002  0.1250060E+03  0.7818608E-02  0.1235060E+00
         21   -1    0    0  503  502  0.00000000000E+00  0.00000000000E+00  0.23393631943E+03  0.23393631943E+03  0.00000000000E+00 0.  1.
         21   -1    0    0  502  503 -0.00000000000E+00 -0.00000000000E+00 -0.16699519952E+02  0.16699519952E+02  0.00000000000E+00 0.  1.
         25    2    1    2    0    0 -0.35527136788E-14  0.00000000000E+00  0.21723679947E+03  0.25063583938E+03  0.12500598760E+03 0.  0.
    9000006    2    3    3    0    0 -0.10442037062E+02  0.20107433181E+00  0.13679746145E+03  0.14974176342E+03  0.59999780698E+02 0.  0.
    9000007    2    3    3    0    0  0.10442037062E+02 -0.20107433181E+00  0.80439338025E+02  0.10089407596E+03  0.60000424108E+02 0.  0.
          5    1    4    4  501    0  0.22823342631E+02 -0.10448675400E+02  0.62177337016E+02  0.67217490468E+02  0.47000000000E+01 0.  1.
         -5    1    4    4    0  501 -0.33265379693E+02  0.10649749732E+02  0.74620124433E+02  0.82524272950E+02  0.47000000000E+01 0.  1.
         12    1    5    5    0    0  0.12031447339E+02 -0.92951916717E+01  0.87787739332E+02  0.89094576099E+02  0.00000000000E+00 0.  1.
        -12    1    5    5    0    0 -0.15894102776E+01  0.90941173399E+01 -0.73484013065E+01  0.11799499862E+02  0.00000000000E+00 0.  1.
<mgrwt>
<rscale>  0 0.12500599E+03</rscale>
<asrwt>0</asrwt>
<pdfrwt beam="1">  1       21 0.35990201E-01 0.12500599E+03</pdfrwt>
<pdfrwt beam="2">  1       21 0.25691571E-02 0.12500599E+03</pdfrwt>
<totfact> 0.59809351E+06</totfact>
</mgrwt>
</event>
<event>
 9    1  0.4541185E-002  0.1249968E+03  0.7818608E-02  0.1235074E+00
         21   -1    0    0  503  502  0.00000000000E+00  0.00000000000E+00  0.20972223257E+03  0.20972223257E+03  0.00000000000E+00 0.  1.
         21   -1    0    0  502  503 -0.00000000000E+00 -0.00000000000E+00 -0.18624879404E+02  0.18624879404E+02  0.00000000000E+00 0.  1.
         25    2    1    2    0    0  0.88817841970E-15  0.88817841970E-15  0.19109735317E+03  0.22834711198E+03  0.12499682060E+03 0.  0.
    9000006    2    3    3    0    0 -0.59704395607E+01  0.20446133245E+01  0.12533619058E+03  0.13910057607E+03  0.59999858347E+02 0.  0.
    9000007    2    3    3    0    0  0.59704395607E+01 -0.20446133245E+01  0.65761162584E+02  0.89246535902E+02  0.60004892083E+02 0.  0.
          5    1    4    4  501    0 -0.12952845427E+02 -0.15200616319E+01  0.12863730997E+03  0.12938212515E+03  0.47000000000E+01 0.  1.
         -5    1    4    4    0  501  0.69824058659E+01  0.35646749565E+01 -0.33011193832E+01  0.97184509261E+01  0.47000000000E+01 0.  1.
         12    1    5    5    0    0  0.97877427084E+01  0.28174097437E+02  0.34372946998E+02  0.45509110726E+02  0.00000000000E+00 0.  1.
        -12    1    5    5    0    0 -0.38173031477E+01 -0.30218710761E+02  0.31388215586E+02  0.43737425176E+02  0.00000000000E+00 0.  1.
<mgrwt>
<rscale>  0 0.12499682E+03</rscale>
<asrwt>0</asrwt>
<pdfrwt beam="1">  1       21 0.32264957E-01 0.12499682E+03</pdfrwt>
<pdfrwt beam="2">  1       21 0.28653662E-02 0.12499682E+03</pdfrwt>
<totfact> 0.61983832E+06</totfact>
</mgrwt>
</event>
<event>
 9    1  0.4541185E-002  0.1250070E+03  0.7818608E-02  0.1235058E+00
         21   -1    0    0  503  502  0.00000000000E+00  0.00000000000E+00  0.20976059007E+02  0.20976059007E+02  0.00000000000E+00 0. -1.
         21   -1    0    0  502  503 -0.00000000000E+00 -0.00000000000E+00 -0.18624519484E+03  0.18624519484E+03  0.00000000000E+00 0. -1.
         25    2    1    2    0    0 -0.35527136788E-14  0.00000000000E+00 -0.16526913583E+03  0.20722125385E+03  0.12500704295E+03 0.  0.
    9000006    2    3    3    0    0  0.14811004766E+02  0.41474493396E+01 -0.96502377223E+02  0.11467174128E+03  0.60002768611E+02 0.  0.
    9000007    2    3    3    0    0 -0.14811004766E+02 -0.41474493396E+01 -0.68766758609E+02  0.92549512564E+02  0.59999816566E+02 0.  0.
          5    1    4    4  501    0  0.28817573329E+02 -0.58156993963E+01 -0.19395071476E+02  0.35532150084E+02  0.47000000000E+01 0.  1.
         -5    1    4    4    0  501 -0.14006568563E+02  0.99631487360E+01 -0.77107305747E+02  0.79139591199E+02  0.47000000000E+01 0.  1.
         12    1    5    5    0    0  0.20765525887E+02 -0.12752509001E+02 -0.35690114961E+02  0.43215944478E+02  0.00000000000E+00 0. -1.
        -12    1    5    5    0    0 -0.35576530653E+02  0.86050596617E+01 -0.33076643648E+02  0.49333568085E+02  0.00000000000E+00 0. -1.
<mgrwt>
<rscale>  0 0.12500704E+03</rscale>
<asrwt>0</asrwt>
<pdfrwt beam="1">  1       21 0.32270861E-02 0.12500704E+03</pdfrwt>
<pdfrwt beam="2">  1       21 0.28653106E-01 0.12500704E+03</pdfrwt>
<totfact> 0.64141652E+06</totfact>
</mgrwt>
</event>
<event>
 9    1  0.4541185E-002  0.1250020E+03  0.7818608E-02  0.1235066E+00
         21   -1    0    0  503  502  0.00000000000E+00  0.00000000000E+00  0.44132619735E+02  0.44132619735E+02  0.00000000000E+00 0. -1.
         21   -1    0    0  502  503 -0.00000000000E+00 -0.00000000000E+00 -0.88514530310E+02  0.88514530310E+02  0.00000000000E+00 0. -1.
         25    2    1    2    0    0 -0.17763568394E-14 -0.35527136788E-14 -0.44381910575E+02  0.13264715005E+03  0.12500204970E+03 0.  0.
    9000006    2    3    3    0    0 -0.61815312347E+01  0.16260726952E+02 -0.24219692568E+02  0.67003134083E+02  0.60001699138E+02 0.  0.
    9000007    2    3    3    0    0  0.61815312347E+01 -0.16260726952E+02 -0.20162218007E+02  0.65644015963E+02  0.59999993561E+02 0.  0.
          5    1    4    4  501    0  0.14270638576E+02  0.23153263365E+02 -0.33186447209E+02  0.43164279308E+02  0.47000000000E+01 0. -1.
         -5    1    4    4    0  501 -0.20452169811E+02 -0.68925364131E+01  0.89667546411E+01  0.23838854775E+02  0.47000000000E+01 0. -1.
         12    1    5    5    0    0  0.30008612272E+02 -0.82860933717E+00 -0.21966776203E+02  0.37198691653E+02  0.00000000000E+00 0.  1.
        -12    1    5    5    0    0 -0.23827081037E+02 -0.15432117615E+02  0.18045581963E+01  0.28445324310E+02  0.00000000000E+00 0.  1.
<mgrwt>
<rscale>  0 0.12500205E+03</rscale>
<asrwt>0</asrwt>
<pdfrwt beam="1">  1       21 0.67896339E-02 0.12500205E+03</pdfrwt>
<pdfrwt beam="2">  1       21 0.13617620E-01 0.12500205E+03</pdfrwt>
<totfact> 0.73005735E+06</totfact>
</mgrwt>
</event>
<event>
 9    1  0.4541185E-002  0.1250066E+03  0.7818608E-02  0.1235059E+00
         21   -1    0    0  503  502  0.00000000000E+00  0.00000000000E+00  0.62107919894E+02  0.62107919894E+02  0.00000000000E+00 0.  1.
         21   -1    0    0  502  503 -0.00000000000E+00 -0.00000000000E+00 -0.62901197657E+02  0.62901197657E+02  0.00000000000E+00 0.  1.
         25    2    1    2    0    0 -0.17763568394E-14  0.17763568394E-14 -0.79327776304E+00  0.12500911755E+03  0.12500660055E+03 0.  0.
    9000006    2    3    3    0    0  0.36041835681E+01  0.14218121013E+02 -0.99614711828E+01  0.62564943606E+02  0.59999967966E+02 0.  0.
    9000007    2    3    3    0    0 -0.36041835681E+01 -0.14218121013E+02  0.91681934197E+01  0.62444173945E+02  0.60000616536E+02 0.  0.
          5    1    4    4  501    0 -0.12156909837E+02 -0.13276417960E+02  0.13387735161E+02  0.22921064185E+02  0.47000000000E+01 0.  1.
         -5    1    4    4    0  501  0.15761093405E+02  0.27494538972E+02 -0.23349206344E+02  0.39643879421E+02  0.47000000000E+01 0.  1.
         12    1    5    5    0    0 -0.23464399748E+02  0.88065065980E+01 -0.94560787089E+01  0.26787124492E+02  0.00000000000E+00 0. -1.
        -12    1    5    5    0    0  0.19860216180E+02 -0.23024627611E+02  0.18624272129E+02  0.35657049453E+02  0.00000000000E+00 0. -1.
<mgrwt>
<rscale>  0 0.12500660E+03</rscale>
<asrwt>0</asrwt>
<pdfrwt beam="1">  1       21 0.95550646E-02 0.12500660E+03</pdfrwt>
<pdfrwt beam="2">  1       21 0.96771073E-02 0.12500660E+03</pdfrwt>
<totfact> 0.74029856E+06</totfact>
</mgrwt>
</event>
<event>
 9    1  0.4541185E-002  0.1250000E+03  0.7818608E-02  0.1235069E+00
         21   -1    0    0  503  502  0.00000000000E+00  0.00000000000E+00  0.46761420907E+03  0.46761420907E+03  0.00000000000E+00 0.  1.
         21   -1    0    0  502  503 -0.00000000000E+00 -0.00000000000E+00 -0.83535789911E+01  0.83535789911E+01  0.00000000000E+00 0.  1.
         25    2    1    2    0    0  0.88817841970E-15  0.00000000000E+00  0.45926063008E+03  0.47596778806E+03  0.12500003573E+03 0.  0.
    9000006    2    3    3    0    0  0.76296680248E+01 -0.14602459247E+02  0.20716579129E+03  0.21630793826E+03  0.60000128521E+02 0.  0.
    9000007    2    3    3    0    0 -0.76296680248E+01  0.14602459247E+02  0.25209483879E+03  0.25965984980E+03  0.59999885044E+02 0.  0.
          5    1    4    4  501    0  0.65182424942E+01 -0.35018228006E+02  0.16879533723E+03  0.17257670656E+03  0.47000000000E+01 0.  1.
         -5    1    4    4    0  501  0.11114255306E+01  0.20415768760E+02  0.38370454062E+02  0.43731231697E+02  0.47000000000E+01 0.  1.
         12    1    5    5    0    0 -0.33917324642E+02  0.52643097061E+01  0.13860464731E+03  0.14279126768E+03  0.00000000000E+00 0. -1.
        -12    1    5    5    0    0  0.26287656617E+02  0.93381495408E+01  0.11349019148E+03  0.11686858213E+03  0.00000000000E+00 0. -1.
<mgrwt>
<rscale>  0 0.12500004E+03</rscale>
<asrwt>0</asrwt>
<pdfrwt beam="1">  1       21 0.71940627E-01 0.12500004E+03</pdfrwt>
<pdfrwt beam="2">  1       21 0.12851664E-02 0.12500004E+03</pdfrwt>
<totfact> 0.43378083E+06</totfact>
</mgrwt>
</event>
<event>
 9    1  0.4541185E-002  0.1250005E+03  0.7818608E-02  0.1235068E+00
         21   -1    0    0  503  502  0.00000000000E+00  0.00000000000E+00  0.76641153662E+01  0.76641153662E+01  0.00000000000E+00 0.  1.
         21   -1    0    0  502  503 -0.00000000000E+00 -0.00000000000E+00 -0.50968469181E+03  0.50968469181E+03  0.00000000000E+00 0.  1.
         25    2    1    2    0    0  0.35527136788E-14  0.00000000000E+00 -0.50202057645E+03  0.51734880718E+03  0.12500051645E+03 0.  0.
    9000006    2    3    3    0    0  0.20691321422E+01  0.16623088113E+02 -0.23005755644E+03  0.23834216124E+03  0.59999151539E+02 0.  0.
    9000007    2    3    3    0    0 -0.20691321422E+01 -0.16623088113E+02 -0.27196302001E+03  0.27900664594E+03  0.60001798791E+02 0.  0.
          5    1    4    4  501    0 -0.16992046687E+02  0.30574476686E+02 -0.99311910075E+02  0.10539674453E+03  0.47000000000E+01 0. -1.
         -5    1    4    4    0  501  0.19061178829E+02 -0.13951388574E+02 -0.13074564636E+03  0.13294541671E+03  0.47000000000E+01 0. -1.
         12    1    5    5    0    0  0.10706625500E+02  0.20180624517E+02 -0.11801213021E+03  0.12020296299E+03  0.00000000000E+00 0.  1.
        -12    1    5    5    0    0 -0.12775757642E+02 -0.36803712630E+02 -0.15395088980E+03  0.15880368295E+03  0.00000000000E+00 0.  1.
<mgrwt>
<rscale>  0 0.12500052E+03</rscale>
<asrwt>0</asrwt>
<pdfrwt beam="1">  1       21 0.11790950E-02 0.12500052E+03</pdfrwt>
<pdfrwt beam="2">  1       21 0.78413010E-01 0.12500052E+03</pdfrwt>
<totfact> 0.41118047E+06</totfact>
</mgrwt>
</event>
<event>
 9    1  0.4541185E-002  0.1250015E+03  0.7818608E-02  0.1235067E+00
         21   -1    0    0  503  502  0.00000000000E+00  0.00000000000E+00  0.18112195590E+03  0.18112195590E+03  0.00000000000E+00 0. -1.
         21   -1    0    0  502  503 -0.00000000000E+00 -0.00000000000E+00 -0.21567469877E+02  0.21567469877E+02  0.00000000000E+00 0. -1.
         25    2    1    2    0    0 -0.17763568394E-14  0.00000000000E+00  0.15955448602E+03  0.20268942578E+03  0.12500147724E+03 0.  0.
    9000006    2    3    3    0    0  0.31695642248E+01 -0.11031295987E+02  0.58339083347E+02  0.84468640703E+02  0.59998058201E+02 0.  0.
    9000007    2    3    3    0    0 -0.31695642248E+01  0.11031295987E+02  0.10121540268E+03  0.11822078508E+03  0.59998838789E+02 0.  0.
          5    1    4    4  501    0  0.12945826665E+02  0.16151655482E+01 -0.80408838621E+01  0.16029628850E+02  0.47000000000E+01 0.  1.
         -5    1    4    4    0  501 -0.97762624406E+01 -0.12646461535E+02  0.66379967209E+02  0.68439011852E+02  0.47000000000E+01 0.  1.
         12    1    5    5    0    0 -0.22175832174E+01  0.18358668338E+02  0.18537781153E+01  0.18584802172E+02  0.00000000000E+00 0. -1.
        -12    1    5    5    0    0 -0.95198100746E+00 -0.73273723505E+01  0.99361624563E+02  0.99635982904E+02  0.00000000000E+00 0. -1.
<mgrwt>
<rscale>  0 0.12500148E+03</rscale>
<asrwt>0</asrwt>
<pdfrwt beam="1">  1       21 0.27864915E-01 0.12500148E+03</pdfrwt>
<pdfrwt beam="2">  1       21 0.33180724E-02 0.12500148E+03</pdfrwt>
<totfact> 0.64634579E+06</totfact>
</mgrwt>
</event>
<event>
 9    1  0.4541185E-002  0.1250018E+03  0.7818608E-02  0.1235066E+00
         21   -1    0    0  503  502  0.00000000000E+00  0.00000000000E+00  0.16201903589E+02  0.16201903589E+02  0.00000000000E+00 0.  1.
         21   -1    0    0  502  503 -0.00000000000E+00 -0.00000000000E+00 -0.24110529121E+03  0.24110529121E+03  0.00000000000E+00 0.  1.
         25    2    1    2    0    0  0.00000000000E+00  0.00000000000E+00 -0.22490338762E+03  0.25730719480E+03  0.12500183491E+03 0.  0.
    9000006    2    3    3    0    0 -0.98872792270E+01 -0.40999545009E+01 -0.14095866670E+03  0.15357040208E+03  0.59999623011E+02 0.  0.
    9000007    2    3    3    0    0  0.98872792270E+01  0.40999545009E+01 -0.83944720925E+02  0.10373679272E+03  0.60000317287E+02 0.  0.
          5    1    4    4  501    0  0.19392622070E+02 -0.47580494587E+00 -0.10471758490E+03  0.10660282721E+03  0.47000000000E+01 0. -1.
         -5    1    4    4    0  501 -0.29279901297E+02 -0.36241495550E+01 -0.36241081798E+02  0.46967574878E+02  0.47000000000E+01 0. -1.
         12    1    5    5    0    0  0.93173126261E+01  0.12402273679E+02 -0.91313294126E+02  0.92621522289E+02  0.00000000000E+00 0. -1.
        -12    1    5    5    0    0  0.56996660097E+00 -0.83023191782E+01  0.73685732010E+01  0.11115270428E+02  0.00000000000E+00 0. -1.
<mgrwt>
<rscale>  0 0.12500183E+03</rscale>
<asrwt>0</asrwt>
<pdfrwt beam="1">  1       21 0.24926008E-02 0.12500183E+03</pdfrwt>
<pdfrwt beam="2">  1       21 0.37093117E-01 0.12500183E+03</pdfrwt>
<totfact> 0.59194233E+06</totfact>
</mgrwt>
</event>
<event>
 8    1  0.4541185E-002  0.1246384E+03  0.7818608E-02  0.1235636E+00
         21   -1    0    0  503  502  0.00000000000E+00  0.00000000000E+00  0.43929041225E+02  0.43929041225E+02  0.00000000000E+00 0.  1.
         21   -1    0    0  502  503 -0.00000000000E+00 -0.00000000000E+00 -0.88408031207E+02  0.88408031207E+02  0.00000000000E+00 0.  1.
    9000006    2    1    2    0    0  0.15353578142E+01 -0.99042847244E+01 -0.36613386326E+02  0.70999526233E+02  0.59999504061E+02 0.  0.
    9000007    2    1    2    0    0 -0.15353578142E+01  0.99042847244E+01 -0.78656036560E+01  0.61337546198E+02  0.59999788943E+02 0.  0.
          5    1    3    3  501    0 -0.10430413566E+01  0.17616661896E+02 -0.38792915506E+02  0.42876742007E+02  0.47000000000E+01 0. -1.
         -5    1    3    3    0  501  0.25783991708E+01 -0.27520946621E+02  0.21795291804E+01  0.28122784226E+02  0.47000000000E+01 0. -1.
         12    1    4    4    0    0  0.16208057351E+02 -0.73931318371E+01  0.18134250867E+02  0.25420672217E+02  0.00000000000E+00 0.  1.
        -12    1    4    4    0    0 -0.17743415165E+02  0.17297416562E+02 -0.25999854523E+02  0.35916873982E+02  0.00000000000E+00 0.  1.
<mgrwt>
<rscale>  0 0.12463836E+03</rscale>
<asrwt>0</asrwt>
<pdfrwt beam="1">  1       21 0.67583141E-02 0.12463836E+03</pdfrwt>
<pdfrwt beam="2">  1       21 0.13601236E-01 0.12463836E+03</pdfrwt>
<totfact> 0.73729001E+06</totfact>
</mgrwt>
</event>
<event>
 9    1  0.4541185E-002  0.1250039E+03  0.7818608E-02  0.1235063E+00
         21   -1    0    0  503  502  0.00000000000E+00  0.00000000000E+00  0.50633583116E+02  0.50633583116E+02  0.00000000000E+00 0.  1.
         21   -1    0    0  502  503 -0.00000000000E+00 -0.00000000000E+00 -0.77152267118E+02  0.77152267118E+02  0.00000000000E+00 0.  1.
         25    2    1    2    0    0  0.00000000000E+00  0.17763568394E-14 -0.26518684003E+02  0.12778585023E+03  0.12500393161E+03 0.  0.
    9000006    2    3    3    0    0 -0.82944758661E+00  0.10077154746E+02  0.13495202944E+01  0.60861007484E+02  0.60000033299E+02 0.  0.
    9000007    2    3    3    0    0  0.82944758661E+00 -0.10077154746E+02 -0.27868204297E+02  0.66924842750E+02  0.60000506125E+02 0.  0.
          5    1    4    4  501    0 -0.15502012035E+01 -0.78415847681E+01  0.27377736664E+02  0.28905432713E+02  0.47000000000E+01 0.  1.
         -5    1    4    4    0  501  0.72075361692E+00  0.17918739514E+02 -0.26028216370E+02  0.31955574771E+02  0.47000000000E+01 0.  1.
         12    1    5    5    0    0  0.17805687415E+01 -0.30374431120E+01 -0.46682016507E+02  0.46814604034E+02  0.00000000000E+00 0. -1.
        -12    1    5    5    0    0 -0.95112115488E+00 -0.70397116342E+01  0.18813812210E+02  0.20110238716E+02  0.00000000000E+00 0. -1.
<mgrwt>
<rscale>  0 0.12500393E+03</rscale>
<asrwt>0</asrwt>
<pdfrwt beam="1">  1       21 0.77897820E-02 0.12500393E+03</pdfrwt>
<pdfrwt beam="2">  1       21 0.11869580E-01 0.12500393E+03</pdfrwt>
<totfact> 0.73655115E+06</totfact>
</mgrwt>
</event>
<event>
 9    1  0.4541185E-002  0.1249962E+03  0.7818608E-02  0.1235075E+00
         21   -1    0    0  503  502  0.00000000000E+00  0.00000000000E+00  0.11736817899E+02  0.11736817899E+02  0.00000000000E+00 0.  1.
         21   -1    0    0  502  503 -0.00000000000E+00 -0.00000000000E+00 -0.33280010140E+03  0.33280010140E+03  0.00000000000E+00 0.  1.
         25    2    1    2    0    0  0.00000000000E+00 -0.35527136788E-14 -0.32106328350E+03  0.34453691930E+03  0.12499622694E+03 0.  0.
    9000006    2    3    3    0    0 -0.13323909597E+02  0.10994877024E+02 -0.15274960653E+03  0.16501578073E+03  0.59994597301E+02 0.  0.
    9000007    2    3    3    0    0  0.13323909597E+02 -0.10994877024E+02 -0.16831367697E+03  0.17952113857E+03  0.59999428765E+02 0.  0.
          5    1    4    4  501    0  0.18976273137E+02 -0.11580302254E+02 -0.53457123068E+02  0.58085767182E+02  0.47000000000E+01 0.  1.
         -5    1    4    4    0  501 -0.32300182733E+02  0.22575179278E+02 -0.99292483467E+02  0.10693001355E+03  0.47000000000E+01 0.  1.
         12    1    5    5    0    0 -0.91294158993E+01 -0.19036902714E+02 -0.14371896192E+03  0.14526145365E+03  0.00000000000E+00 0.  1.
        -12    1    5    5    0    0  0.22453325496E+02  0.80420256894E+01 -0.24594715046E+02  0.34259684926E+02  0.00000000000E+00 0.  1.
<mgrwt>
<rscale>  0 0.12499623E+03</rscale>
<asrwt>0</asrwt>
<pdfrwt beam="1">  1       21 0.18056642E-02 0.12499623E+03</pdfrwt>
<pdfrwt beam="2">  1       21 0.51200018E-01 0.12499623E+03</pdfrwt>
<totfact> 0.51949353E+06</totfact>
</mgrwt>
</event>
<event>
 9    1  0.4541185E-002  0.1250035E+03  0.7818608E-02  0.1235064E+00
         21   -1    0    0  503  502  0.00000000000E+00  0.00000000000E+00  0.22033257046E+03  0.22033257046E+03  0.00000000000E+00 0.  1.
         21   -1    0    0  502  503 -0.00000000000E+00 -0.00000000000E+00 -0.17729860438E+02  0.17729860438E+02  0.00000000000E+00 0.  1.
         25    2    1    2    0    0  0.00000000000E+00  0.00000000000E+00  0.20260271002E+03  0.23806243090E+03  0.12500345154E+03 0.  0.
    9000006    2    3    3    0    0 -0.33889343210E+01  0.15915848686E+02  0.11358665119E+03  0.12948634608E+03  0.59999894809E+02 0.  0.
    9000007    2    3    3    0    0  0.33889343210E+01 -0.15915848686E+02  0.89016058834E+02  0.10857608482E+03  0.60000902906E+02 0.  0.
          5    1    4    4  501    0  0.20810370389E+01 -0.20750362211E+02  0.63457147410E+02  0.66961241061E+02  0.47000000000E+01 0.  1.
         -5    1    4    4    0  501 -0.54699713599E+01  0.36666210897E+02  0.50129503778E+02  0.62525105016E+02  0.47000000000E+01 0.  1.
         12    1    5    5    0    0  0.40337878226E+00  0.18900511633E+02  0.83506022800E+01  0.20666993319E+02  0.00000000000E+00 0.  1.
        -12    1    5    5    0    0  0.29855555387E+01 -0.34816360318E+02  0.80665456554E+02  0.87909091502E+02  0.00000000000E+00 0.  1.
<mgrwt>
<rscale>  0 0.12500345E+03</rscale>
<asrwt>0</asrwt>
<pdfrwt beam="1">  1       21 0.33897316E-01 0.12500345E+03</pdfrwt>
<pdfrwt beam="2">  1       21 0.27276710E-02 0.12500345E+03</pdfrwt>
<totfact> 0.61015350E+06</totfact>
</mgrwt>
</event>
<event>
 9    1  0.4541185E-002  0.1249990E+03  0.7818608E-02  0.1235071E+00
         21   -1    0    0  503  502  0.00000000000E+00  0.00000000000E+00  0.61064499797E+02  0.61064499797E+02  0.00000000000E+00 0.  1.
         21   -1    0    0  502  503 -0.00000000000E+00 -0.00000000000E+00 -0.63968273115E+02  0.63968273115E+02  0.00000000000E+00 0.  1.
         25    2    1    2    0    0  0.44408920985E-15 -0.35527136788E-14 -0.29037733182E+01  0.12503277291E+03  0.12499904961E+03 0.  0.
    9000006    2    3    3    0    0  0.31429340466E+01 -0.10297316042E+02 -0.15249241410E+02  0.62835975478E+02  0.59999230817E+02 0.  0.
    9000007    2    3    3    0    0 -0.31429340466E+01  0.10297316042E+02  0.12345468092E+02  0.62196797434E+02  0.60000985630E+02 0.  0.
          5    1    4    4  501    0  0.39764598722E+01  0.22277421176E+02  0.57107532453E+01  0.23807528851E+02  0.47000000000E+01 0. -1.
         -5    1    4    4    0  501 -0.83352582557E+00 -0.32574737219E+02 -0.20959994655E+02  0.39028446627E+02  0.47000000000E+01 0. -1.
         12    1    5    5    0    0 -0.16253297917E+02 -0.20034339360E+02 -0.26028832781E+01  0.25929123551E+02  0.00000000000E+00 0. -1.
        -12    1    5    5    0    0  0.13110363870E+02  0.30331655402E+02  0.14948351370E+02  0.36267673883E+02  0.00000000000E+00 0. -1.
<mgrwt>
<rscale>  0 0.12499905E+03</rscale>
<asrwt>0</asrwt>
<pdfrwt beam="1">  1       21 0.93945385E-02 0.12499905E+03</pdfrwt>
<pdfrwt beam="2">  1       21 0.98412727E-02 0.12499905E+03</pdfrwt>
<totfact> 0.74040954E+06</totfact>
</mgrwt>
</event>
<event>
 9    1  0.4541185E-002  0.1250040E+03  0.7818608E-02  0.1235063E+00
         21   -1    0    0  503  502  0.00000000000E+00  0.00000000000E+00  0.30075307444E+02  0.30075307444E+02  0.00000000000E+00 0.  1.
         21   -1    0    0  502  503 -0.00000000000E+00 -0.00000000000E+00 -0.12989066495E+03  0.12989066495E+03  0.00000000000E+00 0.  1.
         25    2    1    2    0    0  0.00000000000E+00  0.00000000000E+00 -0.99815357501E+02  0.15996597239E+03  0.12500402685E+03 0.  0.
    9000006    2    3    3    0    0 -0.14425980742E+02 -0.86007896342E+01 -0.56234538936E+02  0.83931082001E+02  0.60000172115E+02 0.  0.
    9000007    2    3    3    0    0  0.14425980742E+02  0.86007896342E+01 -0.43580818565E+02  0.76034890389E+02  0.59999452556E+02 0.  0.
          5    1    4    4  501    0  0.12739792479E+02  0.10899759370E+02  0.10389692873E+01  0.17443523839E+02  0.47000000000E+01 0.  1.
         -5    1    4    4    0  501 -0.27165773221E+02 -0.19500549004E+02 -0.57273508223E+02  0.66487558162E+02  0.47000000000E+01 0.  1.
         12    1    5    5    0    0  0.10680805951E+02  0.19187652065E+02 -0.55483226796E+02  0.59671048786E+02  0.00000000000E+00 0.  1.
        -12    1    5    5    0    0  0.37451747903E+01 -0.10586862431E+02  0.11902408231E+02  0.16363841604E+02  0.00000000000E+00 0.  1.
<mgrwt>
<rscale>  0 0.12500403E+03</rscale>
<asrwt>0</asrwt>
<pdfrwt beam="1">  1       21 0.46269705E-02 0.12500403E+03</pdfrwt>
<pdfrwt beam="2">  1       21 0.19983179E-01 0.12500403E+03</pdfrwt>
<totfact> 0.69516537E+06</totfact>
</mgrwt>
</event>
<event>
 9    1  0.4541185E-002  0.1250046E+03  0.7818608E-02  0.1235062E+00
         21   -1    0    0  503  502  0.00000000000E+00  0.00000000000E+00  0.93432401755E+02  0.93432401755E+02  0.00000000000E+00 0. -1.
         21   -1    0    0  502  503 -0.00000000000E+00 -0.00000000000E+00 -0.41811374566E+02  0.41811374566E+02  0.00000000000E+00 0. -1.
         25    2    1    2    0    0  0.17763568394E-14 -0.17763568394E-14  0.51621027190E+02  0.13524377632E+03  0.12500459426E+03 0.  0.
    9000006    2    3    3    0    0  0.68006900906E+01 -0.15974295836E+02  0.28256288581E+02  0.68555423605E+02  0.60000006234E+02 0.  0.
    9000007    2    3    3    0    0 -0.68006900906E+01  0.15974295836E+02  0.23364738609E+02  0.66688352716E+02  0.59999982205E+02 0.  0.
          5    1    4    4  501    0  0.33014809240E+02 -0.66744208699E+01  0.12426157527E+02  0.36208078021E+02  0.47000000000E+01 0.  1.
         -5    1    4    4    0  501 -0.26214119149E+02 -0.92998749659E+01  0.15830131054E+02  0.32347345584E+02  0.47000000000E+01 0.  1.
         12    1    5    5    0    0 -0.77178795671E-01 -0.21642655110E+02  0.17901088823E+02  0.28086641982E+02  0.00000000000E+00 0. -1.
        -12    1    5    5    0    0 -0.67235112949E+01  0.37616950946E+02  0.54636497862E+01  0.38601710734E+02  0.00000000000E+00 0. -1.
<mgrwt>
<rscale>  0 0.12500459E+03</rscale>
<asrwt>0</asrwt>
<pdfrwt beam="1">  1       21 0.14374216E-01 0.12500459E+03</pdfrwt>
<pdfrwt beam="2">  1       21 0.64325192E-02 0.12500459E+03</pdfrwt>
<totfact> 0.72655696E+06</totfact>
</mgrwt>
</event>
<event>
 9    1  0.4541185E-002  0.1249996E+03  0.7818608E-02  0.1235070E+00
         21   -1    0    0  503  502  0.00000000000E+00  0.00000000000E+00  0.47436853749E+02  0.47436853749E+02  0.00000000000E+00 0.  1.
         21   -1    0    0  502  503 -0.00000000000E+00 -0.00000000000E+00 -0.82345730060E+02  0.82345730060E+02  0.00000000000E+00 0.  1.
         25    2    1    2    0    0 -0.17763568394E-14  0.00000000000E+00 -0.34908876311E+02  0.12978258381E+03  0.12499955766E+03 0.  0.
    9000006    2    3    3    0    0 -0.77975292606E+01  0.11558007358E+02 -0.28434130078E+02  0.67844578324E+02  0.59999983817E+02 0.  0.
    9000007    2    3    3    0    0  0.77975292606E+01 -0.11558007358E+02 -0.64747462332E+01  0.61938005484E+02  0.60000043233E+02 0.  0.
          5    1    4    4  501    0 -0.25925053286E+02  0.13320325787E+02 -0.36866733463E+02  0.47231192058E+02  0.47000000000E+01 0.  1.
         -5    1    4    4    0  501  0.18127524025E+02 -0.17623184294E+01  0.84326033853E+01  0.20613386267E+02  0.47000000000E+01 0.  1.
         12    1    5    5    0    0 -0.74598011885E+01 -0.18175301230E+02 -0.28329406126E+02  0.34475287672E+02  0.00000000000E+00 0. -1.
        -12    1    5    5    0    0  0.15257330449E+02  0.66172938724E+01  0.21854659893E+02  0.27462717813E+02  0.00000000000E+00 0. -1.
<mgrwt>
<rscale>  0 0.12499956E+03</rscale>
<asrwt>0</asrwt>
<pdfrwt beam="1">  1       21 0.72979776E-02 0.12499956E+03</pdfrwt>
<pdfrwt beam="2">  1       21 0.12668574E-01 0.12499956E+03</pdfrwt>
<totfact> 0.73394816E+06</totfact>
</mgrwt>
</event>
<event>
 9    1  0.4541185E-002  0.1249990E+03  0.7818608E-02  0.1235071E+00
         21   -1    0    0  503  502  0.00000000000E+00  0.00000000000E+00  0.23310879559E+03  0.23310879559E+03  0.00000000000E+00 0. -1.
         21   -1    0    0  502  503 -0.00000000000E+00 -0.00000000000E+00 -0.16756938176E+02  0.16756938176E+02  0.00000000000E+00 0. -1.
         25    2    1    2    0    0  0.00000000000E+00  0.53290705182E-14  0.21635185742E+03  0.24986573377E+03  0.12499903481E+03 0.  0.
    9000006    2    3    3    0    0 -0.93169923832E+01  0.14193494050E+02  0.11662289344E+03  0.13224654924E+03  0.59999907425E+02 0.  0.
    9000007    2    3    3    0    0  0.93169923832E+01 -0.14193494050E+02  0.99728963981E+02  0.11761918453E+03  0.60001205765E+02 0.  0.
          5    1    4    4  501    0  0.22641895954E+02  0.11400016638E+02  0.28927646878E+02  0.38749381745E+02  0.47000000000E+01 0. -1.
         -5    1    4    4    0  501 -0.31958888337E+02  0.27934774114E+01  0.87695246560E+02  0.93497167492E+02  0.47000000000E+01 0. -1.
         12    1    5    5    0    0  0.87441663549E+01  0.19240794933E+02  0.13360685753E+02  0.25003530924E+02  0.00000000000E+00 0.  1.
        -12    1    5    5    0    0  0.57282602830E+00 -0.33434288982E+02  0.86368278229E+02  0.92615653610E+02  0.00000000000E+00 0.  1.
<mgrwt>
<rscale>  0 0.12499903E+03</rscale>
<asrwt>0</asrwt>
<pdfrwt beam="1">  1       21 0.35862889E-01 0.12499903E+03</pdfrwt>
<pdfrwt beam="2">  1       21 0.25779907E-02 0.12499903E+03</pdfrwt>
<totfact> 0.59892291E+06</totfact>
</mgrwt>
</event>
<event>
 9    1  0.4541185E-002  0.1249981E+03  0.7818608E-02  0.1235072E+00
         21   -1    0    0  503  502  0.00000000000E+00  0.00000000000E+00  0.29035815680E+01  0.29035815680E+01  0.00000000000E+00 0.  1.
         21   -1    0    0  502  503 -0.00000000000E+00 -0.00000000000E+00 -0.13452807129E+04  0.13452807129E+04  0.00000000000E+00 0.  1.
         25    2    1    2    0    0  0.17763568394E-14  0.35527136788E-14 -0.13423771313E+04  0.13481842945E+04  0.12499811649E+03 0.  0.
    9000006    2    3    3    0    0 -0.72958484451E+01 -0.13787624689E+02 -0.75678890710E+03  0.75932391558E+03  0.60000257141E+02 0.  0.
    9000007    2    3    3    0    0  0.72958484451E+01  0.13787624689E+02 -0.58558822425E+03  0.58886037891E+03  0.59997078850E+02 0.  0.
          5    1    4    4  501    0 -0.32068860831E+02 -0.15487758032E+02 -0.50248169527E+03  0.50376405843E+03  0.47000000000E+01 0. -1.
         -5    1    4    4    0  501  0.24773012386E+02  0.17001333429E+01 -0.25430721183E+03  0.25555985714E+03  0.47000000000E+01 0. -1.
         12    1    5    5    0    0  0.14099857315E+01  0.12714987677E+02 -0.23633460568E+02  0.26873768434E+02  0.00000000000E+00 0. -1.
        -12    1    5    5    0    0  0.58858627136E+01  0.10726370122E+01 -0.56195476368E+03  0.56198661047E+03  0.00000000000E+00 0. -1.
<mgrwt>
<rscale>  0 0.12499812E+03</rscale>
<asrwt>0</asrwt>
<pdfrwt beam="1">  1       21 0.44670491E-03 0.12499812E+03</pdfrwt>
<pdfrwt beam="2">  1       21 0.20696624E+00 0.12499812E+03</pdfrwt>
<totfact> 0.16409530E+06</totfact>
</mgrwt>
</event>
<event>
 9    1  0.4541185E-002  0.1249990E+03  0.7818608E-02  0.1235071E+00
         21   -1    0    0  503  502  0.00000000000E+00  0.00000000000E+00  0.12893621379E+03  0.12893621379E+03  0.00000000000E+00 0.  1.
         21   -1    0    0  502  503 -0.00000000000E+00 -0.00000000000E+00 -0.30295518197E+02  0.30295518197E+02  0.00000000000E+00 0.  1.
         25    2    1    2    0    0  0.31086244690E-14 -0.35527136788E-14  0.98640695593E+02  0.15923173199E+03  0.12499903058E+03 0.  0.
    9000006    2    3    3    0    0 -0.18527209788E+01 -0.16158070621E+02  0.57562452109E+02  0.84722965770E+02  0.60000243456E+02 0.  0.
    9000007    2    3    3    0    0  0.18527209788E+01  0.16158070621E+02  0.41078243484E+02  0.74508766218E+02  0.59996819369E+02 0.  0.
          5    1    4    4  501    0 -0.19942462014E+02  0.13392250189E+02  0.36360943364E+02  0.43832206865E+02  0.47000000000E+01 0. -1.
         -5    1    4    4    0  501  0.18089741036E+02 -0.29550320811E+02  0.21201508745E+02  0.40890758905E+02  0.47000000000E+01 0. -1.
         12    1    5    5    0    0  0.45978968594E+01 -0.16898746079E+02  0.37194843125E+02  0.41111611859E+02  0.00000000000E+00 0.  1.
        -12    1    5    5    0    0 -0.27451758807E+01  0.33056816700E+02  0.38834003596E+01  0.33397154359E+02  0.00000000000E+00 0.  1.
<mgrwt>
<rscale>  0 0.12499903E+03</rscale>
<asrwt>0</asrwt>
<pdfrwt beam="1">  1       21 0.19836340E-01 0.12499903E+03</pdfrwt>
<pdfrwt beam="2">  1       21 0.46608490E-02 0.12499903E+03</pdfrwt>
<totfact> 0.69615208E+06</totfact>
</mgrwt>
</event>
<event>
 9    1  0.4541185E-002  0.1250034E+03  0.7818608E-02  0.1235064E+00
         21   -1    0    0  503  502  0.00000000000E+00  0.00000000000E+00  0.33591722092E+02  0.33591722092E+02  0.00000000000E+00 0.  1.
         21   -1    0    0  502  503 -0.00000000000E+00 -0.00000000000E+00 -0.11629234610E+03  0.11629234610E+03  0.00000000000E+00 0.  1.
         25    2    1    2    0    0  0.71054273576E-14 -0.17763568394E-14 -0.82700624011E+02  0.14988406819E+03  0.12500336270E+03 0.  0.
    9000006    2    3    3    0    0 -0.16921377264E+02 -0.44524653335E+01 -0.40645662935E+02  0.74554941938E+02  0.60001766606E+02 0.  0.
    9000007    2    3    3    0    0  0.16921377264E+02  0.44524653335E+01 -0.42054961076E+02  0.75329126257E+02  0.59997500410E+02 0.  0.
          5    1    4    4  501    0  0.20484269085E+02 -0.11618422590E+02 -0.17832261524E+02  0.29911077789E+02  0.47000000000E+01 0.  1.
         -5    1    4    4    0  501 -0.37405646349E+02  0.71659572564E+01 -0.22813401412E+02  0.44643864149E+02  0.47000000000E+01 0.  1.
         12    1    5    5    0    0 -0.44555870554E+01 -0.10511471157E+02  0.11219846608E+02  0.16007130905E+02  0.00000000000E+00 0.  1.
        -12    1    5    5    0    0  0.21376964320E+02  0.14963936491E+02 -0.53274807684E+02  0.59321995352E+02  0.00000000000E+00 0.  1.
<mgrwt>
<rscale>  0 0.12500336E+03</rscale>
<asrwt>0</asrwt>
<pdfrwt beam="1">  1       21 0.51679573E-02 0.12500336E+03</pdfrwt>
<pdfrwt beam="2">  1       21 0.17891130E-01 0.12500336E+03</pdfrwt>
<totfact> 0.70767709E+06</totfact>
</mgrwt>
</event>
<event>
 9    1  0.4541185E-002  0.1249993E+03  0.7818608E-02  0.1235070E+00
         21   -1    0    0  503  502  0.00000000000E+00  0.00000000000E+00  0.16222712580E+01  0.16222712580E+01  0.00000000000E+00 0. -1.
         21   -1    0    0  502  503 -0.00000000000E+00 -0.00000000000E+00 -0.24078626013E+04  0.24078626013E+04  0.00000000000E+00 0. -1.
         25    2    1    2    0    0  0.00000000000E+00  0.88817841970E-15 -0.24062403300E+04  0.24094848725E+04  0.12499930066E+03 0.  0.
    9000006    2    3    3    0    0  0.16139063473E+00 -0.32663754161E+01 -0.15344898134E+04  0.15356658198E+04  0.59998561508E+02 0.  0.
    9000007    2    3    3    0    0 -0.16139063473E+00  0.32663754161E+01 -0.87175051662E+03  0.87381905275E+03  0.60000653848E+02 0.  0.
          5    1    4    4  501    0 -0.73607436507E+01  0.53323009715E+01 -0.45983298556E+02  0.47108043123E+02  0.47000000000E+01 0. -1.
         -5    1    4    4    0  501  0.75221342855E+01 -0.85986763876E+01 -0.14885065148E+04  0.14885577767E+04  0.47000000000E+01 0. -1.
         12    1    5    5    0    0 -0.82401784802E+01  0.21603513561E+02 -0.14834838226E+03  0.15013945137E+03  0.00000000000E+00 0. -1.
        -12    1    5    5    0    0  0.80787878455E+01 -0.18337138145E+02 -0.72340213436E+03  0.72367960138E+03  0.00000000000E+00 0. -1.
<mgrwt>
<rscale>  0 0.12499930E+03</rscale>
<asrwt>0</asrwt>
<pdfrwt beam="1">  1       21 0.24958040E-03 0.12499930E+03</pdfrwt>
<pdfrwt beam="2">  1       21 0.37044009E+00 0.12499930E+03</pdfrwt>
<totfact> 0.46005817E+05</totfact>
</mgrwt>
</event>
<event>
 9    1  0.4541185E-002  0.1249947E+03  0.7818608E-02  0.1235078E+00
         21   -1    0    0  503  502  0.00000000000E+00  0.00000000000E+00  0.13914573853E+03  0.13914573853E+03  0.00000000000E+00 0.  1.
         21   -1    0    0  502  503 -0.00000000000E+00 -0.00000000000E+00 -0.28070702281E+02  0.28070702281E+02  0.00000000000E+00 0.  1.
         25    2    1    2    0    0 -0.35527136788E-14  0.35527136788E-14  0.11107503625E+03  0.16721644081E+03  0.12499469749E+03 0.  0.
    9000006    2    3    3    0    0 -0.12496282067E+02  0.75318303415E+00  0.71860229148E+02  0.94452542257E+02  0.60005548539E+02 0.  0.
    9000007    2    3    3    0    0  0.12496282067E+02 -0.75318303415E+00  0.39214807104E+02  0.72763898557E+02  0.60000495722E+02 0.  0.
          5    1    4    4  501    0 -0.14404495115E+02 -0.27003597416E+02  0.25193147802E+02  0.39918272120E+02  0.47000000000E+01 0.  1.
         -5    1    4    4    0  501  0.19082130477E+01  0.27756780450E+02  0.46667081346E+02  0.54534270136E+02  0.47000000000E+01 0.  1.
         12    1    5    5    0    0  0.30522762434E+02 -0.11724528687E+02  0.39979301573E+02  0.51647344112E+02  0.00000000000E+00 0. -1.
        -12    1    5    5    0    0 -0.18026480367E+02  0.10971345653E+02 -0.76449446944E+00  0.21116554445E+02  0.00000000000E+00 0. -1.
<mgrwt>
<rscale>  0 0.12499470E+03</rscale>
<asrwt>0</asrwt>
<pdfrwt beam="1">  1       21 0.21407036E-01 0.12499470E+03</pdfrwt>
<pdfrwt beam="2">  1       21 0.43185697E-02 0.12499470E+03</pdfrwt>
<totfact> 0.68657548E+06</totfact>
</mgrwt>
</event>
<event>
 9    1  0.4541185E-002  0.1250021E+03  0.7818608E-02  0.1235066E+00
         21   -1    0    0  503  502  0.00000000000E+00  0.00000000000E+00  0.72350744964E+02  0.72350744964E+02  0.00000000000E+00 0. -1.
         21   -1    0    0  502  503 -0.00000000000E+00 -0.00000000000E+00 -0.53992293674E+02  0.53992293674E+02  0.00000000000E+00 0. -1.
         25    2    1    2    0    0 -0.44408920985E-15  0.17763568394E-14  0.18358451290E+02  0.12634303864E+03  0.12500212270E+03 0.  0.
    9000006    2    3    3    0    0 -0.17317878855E+01 -0.91763014149E+01  0.24141944253E+02  0.65345970774E+02  0.60000490224E+02 0.  0.
    9000007    2    3    3    0    0  0.17317878855E+01  0.91763014149E+01 -0.57834929632E+01  0.60997067864E+02  0.59999915835E+02 0.  0.
          5    1    4    4  501    0 -0.18215257873E+01  0.57009827614E+01 -0.18465288981E+02  0.19971881679E+02  0.47000000000E+01 0.  1.
         -5    1    4    4    0  501  0.89737901797E-01 -0.14877284176E+02  0.42607233234E+02  0.45374089095E+02  0.47000000000E+01 0.  1.
         12    1    5    5    0    0  0.15402782046E+02 -0.17312593772E+02  0.12195718765E+02  0.26186010656E+02  0.00000000000E+00 0. -1.
        -12    1    5    5    0    0 -0.13670994160E+02  0.26488895187E+02 -0.17979211728E+02  0.34811057208E+02  0.00000000000E+00 0. -1.
<mgrwt>
<rscale>  0 0.12500212E+03</rscale>
<asrwt>0</asrwt>
<pdfrwt beam="1">  1       21 0.11130884E-01 0.12500212E+03</pdfrwt>
<pdfrwt beam="2">  1       21 0.83065067E-02 0.12500212E+03</pdfrwt>
<totfact> 0.73854874E+06</totfact>
</mgrwt>
</event>
<event>
 9    1  0.4541185E-002  0.1249978E+03  0.7818608E-02  0.1235073E+00
         21   -1    0    0  503  502  0.00000000000E+00  0.00000000000E+00  0.16011080564E+04  0.16011080564E+04  0.00000000000E+00 0. -1.
         21   -1    0    0  502  503 -0.00000000000E+00 -0.00000000000E+00 -0.24396314761E+01  0.24396314761E+01  0.00000000000E+00 0. -1.
         25    2    1    2    0    0 -0.88817841970E-15  0.00000000000E+00  0.15986684250E+04  0.16035476879E+04  0.12499781776E+03 0.  0.
    9000006    2    3    3    0    0  0.24383569916E+01  0.49754310082E+00  0.57708499047E+03  0.58020086117E+03  0.59997999483E+02 0.  0.
    9000007    2    3    3    0    0 -0.24383569916E+01 -0.49754310082E+00  0.10215834345E+04  0.10233468267E+04  0.59998508700E+02 0.  0.
          5    1    4    4  501    0  0.13627242417E+02 -0.16628646784E+02  0.89558209820E+02  0.92222429896E+02  0.47000000000E+01 0.  1.
         -5    1    4    4    0  501 -0.11188885425E+02  0.17126189885E+02  0.48752678065E+03  0.48797843128E+03  0.47000000000E+01 0.  1.
         12    1    5    5    0    0  0.43742845050E+01 -0.12509438163E+02  0.96540782947E+03  0.96549878178E+03  0.00000000000E+00 0. -1.
        -12    1    5    5    0    0 -0.68126414966E+01  0.12011895062E+02  0.56175605011E+02  0.57848044958E+02  0.00000000000E+00 0. -1.
<mgrwt>
<rscale>  0 0.12499782E+03</rscale>
<asrwt>0</asrwt>
<pdfrwt beam="1">  1       21 0.24632348E+00 0.12499782E+03</pdfrwt>
<pdfrwt beam="2">  1       21 0.37532920E-03 0.12499782E+03</pdfrwt>
<totfact> 0.12526405E+06</totfact>
</mgrwt>
</event>
<event>
 9    1  0.4541185E-002  0.1250049E+03  0.7818608E-02  0.1235062E+00
         21   -1    0    0  503  502  0.00000000000E+00  0.00000000000E+00  0.20023663301E+01  0.20023663301E+01  0.00000000000E+00 0.  1.
         21   -1    0    0  502  503 -0.00000000000E+00 -0.00000000000E+00 -0.19509694043E+04  0.19509694043E+04  0.00000000000E+00 0.  1.
         25    2    1    2    0    0 -0.17763568394E-14 -0.88817841970E-15 -0.19489670379E+04  0.19529717706E+04  0.12500488704E+03 0.  0.
    9000006    2    3    3    0    0  0.15981661741E+02  0.15545798443E+01 -0.86541184198E+03  0.86763789676E+03  0.60000278557E+02 0.  0.
    9000007    2    3    3    0    0 -0.15981661741E+02 -0.15545798443E+01 -0.10835551960E+04  0.10853338738E+04  0.59999373157E+02 0.  0.
          5    1    4    4  501    0  0.30960535342E+02 -0.17261586666E+02 -0.40544208344E+03  0.40701583526E+03  0.47000000000E+01 0.  1.
         -5    1    4    4    0  501 -0.14978873602E+02  0.18816166510E+02 -0.45996975854E+03  0.46062206151E+03  0.47000000000E+01 0.  1.
         12    1    5    5    0    0 -0.14315506074E+02  0.65621479726E+01 -0.10637326544E+04  0.10638492166E+04  0.00000000000E+00 0. -1.
        -12    1    5    5    0    0 -0.16661556670E+01 -0.81167278169E+01 -0.19822541531E+02  0.21484657267E+02  0.00000000000E+00 0. -1.
<mgrwt>
<rscale>  0 0.12500489E+03</rscale>
<asrwt>0</asrwt>
<pdfrwt beam="1">  1       21 0.30805574E-03 0.12500489E+03</pdfrwt>
<pdfrwt beam="2">  1       21 0.30014974E+00 0.12500489E+03</pdfrwt>
<totfact> 0.84146868E+05</totfact>
</mgrwt>
</event>
<event>
 9    1  0.4541185E-002  0.1250007E+03  0.7818608E-02  0.1235068E+00
         21   -1    0    0  503  502  0.00000000000E+00  0.00000000000E+00  0.16510685420E+01  0.16510685420E+01  0.00000000000E+00 0. -1.
         21   -1    0    0  502  503 -0.00000000000E+00 -0.00000000000E+00 -0.23659178450E+04  0.23659178450E+04  0.00000000000E+00 0. -1.
         25    2    1    2    0    0 -0.17763568394E-14  0.00000000000E+00 -0.23642667765E+04  0.23675689135E+04  0.12500068043E+03 0.  0.
    9000006    2    3    3    0    0 -0.11938646595E+02 -0.93195207442E+01 -0.13482444476E+04  0.13496638713E+04  0.60000753212E+02 0.  0.
    9000007    2    3    3    0    0  0.11938646595E+02  0.93195207442E+01 -0.10160223289E+04  0.10179050422E+04  0.59999311980E+02 0.  0.
          5    1    4    4  501    0 -0.18302443513E+02 -0.26754460746E+01 -0.13170487422E+03  0.13308043186E+03  0.47000000000E+01 0.  1.
         -5    1    4    4    0  501  0.63637969170E+01 -0.66440746695E+01 -0.12165395734E+04  0.12165834395E+04  0.47000000000E+01 0.  1.
         12    1    5    5    0    0 -0.12358332357E+02  0.27800750438E+02 -0.41924835909E+03  0.42035080196E+03  0.00000000000E+00 0.  1.
        -12    1    5    5    0    0  0.24296978953E+02 -0.18481229694E+02 -0.59677396977E+03  0.59755424024E+03  0.00000000000E+00 0.  1.
<mgrwt>
<rscale>  0 0.12500068E+03</rscale>
<asrwt>0</asrwt>
<pdfrwt beam="1">  1       21 0.25401148E-03 0.12500068E+03</pdfrwt>
<pdfrwt beam="2">  1       21 0.36398602E+00 0.12500068E+03</pdfrwt>
<totfact> 0.48871446E+05</totfact>
</mgrwt>
</event>
<event>
 9    1  0.4541185E-002  0.1250020E+03  0.7818608E-02  0.1235066E+00
         21   -1    0    0  503  502  0.00000000000E+00  0.00000000000E+00  0.16660207625E+02  0.16660207625E+02  0.00000000000E+00 0.  1.
         21   -1    0    0  502  503 -0.00000000000E+00 -0.00000000000E+00 -0.23447327121E+03  0.23447327121E+03  0.00000000000E+00 0.  1.
         25    2    1    2    0    0  0.17763568394E-14  0.17763568394E-14 -0.21781306358E+03  0.25113347883E+03  0.12500197408E+03 0.  0.
    9000006    2    3    3    0    0  0.64397101639E+01  0.14229170787E+02 -0.93018731058E+02  0.11178680723E+03  0.59998889788E+02 0.  0.
    9000007    2    3    3    0    0 -0.64397101639E+01 -0.14229170787E+02 -0.12479433252E+03  0.13934667160E+03  0.59999419052E+02 0.  0.
          5    1    4    4  501    0  0.75140688988E+01 -0.22339796177E+02 -0.26877722737E+02  0.36055924675E+02  0.47000000000E+01 0. -1.
         -5    1    4    4    0  501 -0.10743587348E+01  0.36568966964E+02 -0.66141008321E+02  0.75730882559E+02  0.47000000000E+01 0. -1.
         12    1    5    5    0    0  0.22431648463E+02 -0.15620586549E+00 -0.21116026131E+02  0.30807301287E+02  0.00000000000E+00 0. -1.
        -12    1    5    5    0    0 -0.28871358627E+02 -0.14072964922E+02 -0.10367830639E+03  0.10853937031E+03  0.00000000000E+00 0. -1.
<mgrwt>
<rscale>  0 0.12500197E+03</rscale>
<asrwt>0</asrwt>
<pdfrwt beam="1">  1       21 0.25631091E-02 0.12500197E+03</pdfrwt>
<pdfrwt beam="2">  1       21 0.36072808E-01 0.12500197E+03</pdfrwt>
<totfact> 0.59768665E+06</totfact>
</mgrwt>
</event>
<event>
 9    1  0.4541185E-002  0.1250058E+03  0.7818608E-02  0.1235060E+00
         21   -1    0    0  503  502  0.00000000000E+00  0.00000000000E+00  0.26463893172E+02  0.26463893172E+02  0.00000000000E+00 0. -1.
         21   -1    0    0  502  503 -0.00000000000E+00 -0.00000000000E+00 -0.14762037201E+03  0.14762037201E+03  0.00000000000E+00 0. -1.
         25    2    1    2    0    0  0.00000000000E+00  0.00000000000E+00 -0.12115647883E+03  0.17408426518E+03  0.12500575594E+03 0.  0.
    9000006    2    3    3    0    0 -0.11659919727E+02 -0.77331629690E+00 -0.42416832597E+02  0.74402480337E+02  0.59999913722E+02 0.  0.
    9000007    2    3    3    0    0  0.11659919727E+02  0.77331629690E+00 -0.78739646237E+02  0.99681784841E+02  0.59999788278E+02 0.  0.
          5    1    4    4  501    0 -0.29702876844E+02 -0.86940582556E+01 -0.47891236607E+01  0.31668174043E+02  0.47000000000E+01 0.  1.
         -5    1    4    4    0  501  0.18042957117E+02  0.79207419587E+01 -0.37627708936E+02  0.42734306295E+02  0.47000000000E+01 0.  1.
         12    1    5    5    0    0 -0.24463705086E+02 -0.12595538994E+01 -0.25972727935E+02  0.35702127933E+02  0.00000000000E+00 0. -1.
        -12    1    5    5    0    0  0.36123624813E+02  0.20328701963E+01 -0.52766918302E+02  0.63979656907E+02  0.00000000000E+00 0. -1.
<mgrwt>
<rscale>  0 0.12500576E+03</rscale>
<asrwt>0</asrwt>
<pdfrwt beam="1">  1       21 0.40713681E-02 0.12500576E+03</pdfrwt>
<pdfrwt beam="2">  1       21 0.22710827E-01 0.12500576E+03</pdfrwt>
<totfact> 0.67826828E+06</totfact>
</mgrwt>
</event>
<event>
 9    1  0.4541185E-002  0.1249999E+03  0.7818608E-02  0.1235069E+00
         21   -1    0    0  503  502  0.00000000000E+00  0.00000000000E+00  0.52775424235E+01  0.52775424235E+01  0.00000000000E+00 0.  1.
         21   -1    0    0  502  503 -0.00000000000E+00 -0.00000000000E+00 -0.74016378609E+03  0.74016378609E+03  0.00000000000E+00 0.  1.
         25    2    1    2    0    0  0.17763568394E-14 -0.88817841970E-15 -0.73488624366E+03  0.74544132851E+03  0.12499993250E+03 0.  0.
    9000006    2    3    3    0    0  0.94807591390E+01 -0.41119779477E+01 -0.28323701815E+03  0.28970689143E+03  0.60000677809E+02 0.  0.
    9000007    2    3    3    0    0 -0.94807591390E+01  0.41119779477E+01 -0.45164922552E+03  0.45573443708E+03  0.60000508944E+02 0.  0.
          5    1    4    4  501    0 -0.10226492760E+02 -0.23673982444E+02 -0.72439562526E+02  0.77036477190E+02  0.47000000000E+01 0. -1.
         -5    1    4    4    0  501  0.19707251899E+02  0.19562004496E+02 -0.21079745562E+03  0.21267041424E+03  0.47000000000E+01 0. -1.
         12    1    5    5    0    0  0.72202550697E+01 -0.35814357239E+01 -0.69131579042E+01  0.10618404651E+02  0.00000000000E+00 0.  1.
        -12    1    5    5    0    0 -0.16701014209E+02  0.76934136715E+01 -0.44473606761E+03  0.44511603243E+03  0.00000000000E+00 0.  1.
<mgrwt>
<rscale>  0 0.12499993E+03</rscale>
<asrwt>0</asrwt>
<pdfrwt beam="1">  1       21 0.81193003E-03 0.12499993E+03</pdfrwt>
<pdfrwt beam="2">  1       21 0.11387129E+00 0.12499993E+03</pdfrwt>
<totfact> 0.31229912E+06</totfact>
</mgrwt>
</event>
<event>
 9    1  0.4541185E-002  0.1249998E+03  0.7818608E-02  0.1235070E+00
         21   -1    0    0  503  502  0.00000000000E+00  0.00000000000E+00  0.66185097031E+01  0.66185097031E+01  0.00000000000E+00 0. -1.
         21   -1    0    0  502  503 -0.00000000000E+00 -0.00000000000E+00 -0.59019876440E+03  0.59019876440E+03  0.00000000000E+00 0. -1.
         25    2    1    2    0    0  0.00000000000E+00 -0.17763568394E-14 -0.58358025470E+03  0.59681727411E+03  0.12499977998E+03 0.  0.
    9000006    2    3    3    0    0 -0.93973148949E+00  0.49700321829E+01 -0.21180333483E+03  0.22019581864E+03  0.59999679876E+02 0.  0.
    9000007    2    3    3    0    0  0.93973148949E+00 -0.49700321829E+01 -0.37177691987E+03  0.37662145547E+03  0.60000485466E+02 0.  0.
          5    1    4    4  501    0  0.24022590320E+02 -0.13290179467E+02 -0.79289687459E+02  0.84039623115E+02  0.47000000000E+01 0. -1.
         -5    1    4    4    0  501 -0.24962321810E+02  0.18260211650E+02 -0.13251364737E+03  0.13615619552E+03  0.47000000000E+01 0. -1.
         12    1    5    5    0    0 -0.16040521443E+02  0.22452628416E+02 -0.15093859652E+03  0.15344014719E+03  0.00000000000E+00 0.  1.
        -12    1    5    5    0    0  0.16980252932E+02 -0.27422660599E+02 -0.22083832335E+03  0.22318130828E+03  0.00000000000E+00 0.  1.
<mgrwt>
<rscale>  0 0.12499978E+03</rscale>
<asrwt>0</asrwt>
<pdfrwt beam="1">  1       21 0.10182317E-02 0.12499978E+03</pdfrwt>
<pdfrwt beam="2">  1       21 0.90799859E-01 0.12499978E+03</pdfrwt>
<totfact> 0.37237151E+06</totfact>
</mgrwt>
</event>
<event>
 9    1  0.4541185E-002  0.1250016E+03  0.7818608E-02  0.1235067E+00
         21   -1    0    0  503  502  0.00000000000E+00  0.00000000000E+00  0.52375163197E+01  0.52375163197E+01  0.00000000000E+00 0. -1.
         21   -1    0    0  502  503 -0.00000000000E+00 -0.00000000000E+00 -0.74584061604E+03  0.74584061604E+03  0.00000000000E+00 0. -1.
         25    2    1    2    0    0  0.53290705182E-14 -0.35527136788E-14 -0.74060309972E+03  0.75107813236E+03  0.12500163836E+03 0.  0.
    9000006    2    3    3    0    0 -0.11439131390E+02  0.12795650195E+02 -0.39131171271E+03  0.39625588069E+03  0.59994033762E+02 0.  0.
    9000007    2    3    3    0    0  0.11439131390E+02 -0.12795650195E+02 -0.34929138701E+03  0.35482225167E+03  0.59998123713E+02 0.  0.
          5    1    4    4  501    0  0.12201424097E+02  0.29777256050E+02 -0.18289405281E+03  0.18576297877E+03  0.47000000000E+01 0.  1.
         -5    1    4    4    0  501 -0.23640555487E+02 -0.16981605855E+02 -0.20841765990E+03  0.21049290192E+03  0.47000000000E+01 0.  1.
         12    1    5    5    0    0 -0.24307664372E+02 -0.86829408332E+01 -0.17087953006E+03  0.17281802511E+03  0.00000000000E+00 0. -1.
        -12    1    5    5    0    0  0.35746795762E+02 -0.41127093621E+01 -0.17841185695E+03  0.18200422656E+03  0.00000000000E+00 0. -1.
<mgrwt>
<rscale>  0 0.12500164E+03</rscale>
<asrwt>0</asrwt>
<pdfrwt beam="1">  1       21 0.80577197E-03 0.12500164E+03</pdfrwt>
<pdfrwt beam="2">  1       21 0.11474468E+00 0.12500164E+03</pdfrwt>
<totfact> 0.31029723E+06</totfact>
</mgrwt>
</event>
<event>
 9    1  0.4541185E-002  0.1249984E+03  0.7818608E-02  0.1235072E+00
         21   -1    0    0  503  502  0.00000000000E+00  0.00000000000E+00  0.15230357749E+04  0.15230357749E+04  0.00000000000E+00 0. -1.
         21   -1    0    0  502  503 -0.00000000000E+00 -0.00000000000E+00 -0.25647116800E+01  0.25647116800E+01  0.00000000000E+00 0. -1.
         25    2    1    2    0    0 -0.35527136788E-14  0.00000000000E+00  0.15204710632E+04  0.15256004866E+04  0.12499836224E+03 0.  0.
    9000006    2    3    3    0    0 -0.15953437491E+02 -0.15743374150E+01  0.84591578484E+03  0.84819243296E+03  0.59999146588E+02 0.  0.
    9000007    2    3    3    0    0  0.15953437491E+02  0.15743374150E+01  0.67455527836E+03  0.67740805359E+03  0.59998806707E+02 0.  0.
          5    1    4    4  501    0  0.45100650886E+01 -0.19170713294E+02  0.11537010159E+03  0.11713328850E+03  0.47000000000E+01 0. -1.
         -5    1    4    4    0  501 -0.20463502579E+02  0.17596375879E+02  0.73054568325E+03  0.73105914446E+03  0.47000000000E+01 0. -1.
         12    1    5    5    0    0  0.24107852963E+02  0.16765251508E+02  0.16713397797E+03  0.16969392690E+03  0.00000000000E+00 0. -1.
        -12    1    5    5    0    0 -0.81544154723E+01 -0.15190914093E+02  0.50742130038E+03  0.50771412669E+03  0.00000000000E+00 0. -1.
<mgrwt>
<rscale>  0 0.12499836E+03</rscale>
<asrwt>0</asrwt>
<pdfrwt beam="1">  1       21 0.23431247E+00 0.12499836E+03</pdfrwt>
<pdfrwt beam="2">  1       21 0.39457224E-03 0.12499836E+03</pdfrwt>
<totfact> 0.13618053E+06</totfact>
</mgrwt>
</event>
<event>
 9    1  0.4541185E-002  0.1249975E+03  0.7818608E-02  0.1235073E+00
         21   -1    0    0  503  502  0.00000000000E+00  0.00000000000E+00  0.18087859019E+03  0.18087859019E+03  0.00000000000E+00 0. -1.
         21   -1    0    0  502  503 -0.00000000000E+00 -0.00000000000E+00 -0.21595102331E+02  0.21595102331E+02  0.00000000000E+00 0. -1.
         25    2    1    2    0    0  0.35527136788E-14  0.00000000000E+00  0.15928348786E+03  0.20247369252E+03  0.12499746661E+03 0.  0.
    9000006    2    3    3    0    0 -0.75754027483E+01  0.14613373155E+02  0.89256037620E+02  0.10880061867E+03  0.59999974750E+02 0.  0.
    9000007    2    3    3    0    0  0.75754027483E+01 -0.14613373155E+02  0.70027450236E+02  0.93673073847E+02  0.59998863120E+02 0.  0.
          5    1    4    4  501    0  0.16781614096E+02  0.18848196002E+02  0.13561309058E+02  0.29032329695E+02  0.47000000000E+01 0. -1.
         -5    1    4    4    0  501 -0.24357016844E+02 -0.42348228469E+01  0.75694728563E+02  0.79768288977E+02  0.47000000000E+01 0. -1.
         12    1    5    5    0    0  0.10802230174E+02 -0.35798333378E+02  0.28760552642E+02  0.47173914801E+02  0.00000000000E+00 0. -1.
        -12    1    5    5    0    0 -0.32268274260E+01  0.21184960224E+02  0.41266897595E+02  0.46499159046E+02  0.00000000000E+00 0. -1.
<mgrwt>
<rscale>  0 0.12499747E+03</rscale>
<asrwt>0</asrwt>
<pdfrwt beam="1">  1       21 0.27827474E-01 0.12499747E+03</pdfrwt>
<pdfrwt beam="2">  1       21 0.33223235E-02 0.12499747E+03</pdfrwt>
<totfact> 0.64664340E+06</totfact>
</mgrwt>
</event>
<event>
 9    1  0.4541185E-002  0.1249998E+03  0.7818608E-02  0.1235070E+00
         21   -1    0    0  503  502  0.00000000000E+00  0.00000000000E+00  0.31438588619E+03  0.31438588619E+03  0.00000000000E+00 0.  1.
         21   -1    0    0  502  503 -0.00000000000E+00 -0.00000000000E+00 -0.12424973825E+02  0.12424973825E+02  0.00000000000E+00 0.  1.
         25    2    1    2    0    0  0.00000000000E+00  0.17763568394E-14  0.30196091236E+03  0.32681086001E+03  0.12499978251E+03 0.  0.
    9000006    2    3    3    0    0 -0.97360454279E+01  0.14519063485E+02  0.15353114936E+03  0.16576099476E+03  0.59994164508E+02 0.  0.
    9000007    2    3    3    0    0  0.97360454279E+01 -0.14519063485E+02  0.14842976300E+03  0.16104986525E+03  0.60000589726E+02 0.  0.
          5    1    4    4  501    0 -0.83923988957E+01  0.34967832702E+01 -0.14276162237E+01  0.10333825068E+02  0.47000000000E+01 0.  1.
         -5    1    4    4    0  501 -0.13436465321E+01  0.11022280215E+02  0.15495876558E+03  0.15542716969E+03  0.47000000000E+01 0.  1.
         12    1    5    5    0    0 -0.12148214106E+02  0.13064448243E+02  0.15815693310E+02  0.23841037493E+02  0.00000000000E+00 0.  1.
        -12    1    5    5    0    0  0.21884259534E+02 -0.27583511728E+02  0.13261406969E+03  0.13720882776E+03  0.00000000000E+00 0.  1.
<mgrwt>
<rscale>  0 0.12499978E+03</rscale>
<asrwt>0</asrwt>
<pdfrwt beam="1">  1       21 0.48367054E-01 0.12499978E+03</pdfrwt>
<pdfrwt beam="2">  1       21 0.19115347E-02 0.12499978E+03</pdfrwt>
<totfact> 0.53298285E+06</totfact>
</mgrwt>
</event>
<event>
 9    1  0.4541185E-002  0.1249984E+03  0.7818608E-02  0.1235072E+00
         21   -1    0    0  503  502  0.00000000000E+00  0.00000000000E+00  0.24813537799E+02  0.24813537799E+02  0.00000000000E+00 0. -1.
         21   -1    0    0  502  503 -0.00000000000E+00 -0.00000000000E+00 -0.15742015951E+03  0.15742015951E+03  0.00000000000E+00 0. -1.
         25    2    1    2    0    0  0.00000000000E+00  0.53290705182E-14 -0.13260662171E+03  0.18223369731E+03  0.12499841725E+03 0.  0.
    9000006    2    3    3    0    0  0.11146626954E+02  0.11632495568E+02 -0.76247122398E+02  0.98353217628E+02  0.60001412468E+02 0.  0.
    9000007    2    3    3    0    0 -0.11146626954E+02 -0.11632495568E+02 -0.56359499317E+02  0.83880479685E+02  0.59999828861E+02 0.  0.
          5    1    4    4  501    0  0.13677117662E+02  0.26846583857E+02 -0.76366151302E+02  0.82229445316E+02  0.47000000000E+01 0. -1.
         -5    1    4    4    0  501 -0.25304907084E+01 -0.15214088289E+02  0.11902890375E+00  0.16123772312E+02  0.47000000000E+01 0. -1.
         12    1    5    5    0    0 -0.84188477593E+01  0.23532629608E+02 -0.33706199633E+02  0.41961524610E+02  0.00000000000E+00 0. -1.
        -12    1    5    5    0    0 -0.27277791944E+01 -0.35165125177E+02 -0.22653299683E+02  0.41918955075E+02  0.00000000000E+00 0. -1.
<mgrwt>
<rscale>  0 0.12499842E+03</rscale>
<asrwt>0</asrwt>
<pdfrwt beam="1">  1       21 0.38174674E-02 0.12499842E+03</pdfrwt>
<pdfrwt beam="2">  1       21 0.24218486E-01 0.12499842E+03</pdfrwt>
<totfact> 0.66898898E+06</totfact>
</mgrwt>
</event>
<event>
 9    1  0.4541185E-002  0.1249998E+03  0.7818608E-02  0.1235070E+00
         21   -1    0    0  503  502  0.00000000000E+00  0.00000000000E+00  0.78898134395E+02  0.78898134395E+02  0.00000000000E+00 0. -1.
         21   -1    0    0  502  503 -0.00000000000E+00 -0.00000000000E+00 -0.49509878915E+02  0.49509878915E+02  0.00000000000E+00 0. -1.
         25    2    1    2    0    0  0.00000000000E+00  0.00000000000E+00  0.29388255479E+02  0.12840801331E+03  0.12499979329E+03 0.  0.
    9000006    2    3    3    0    0 -0.36247991274E+00 -0.12633448921E+02  0.22602070189E+01  0.61358400342E+02  0.60000077778E+02 0.  0.
    9000007    2    3    3    0    0  0.36247991274E+00  0.12633448921E+02  0.27128048461E+02  0.67049612968E+02  0.59999868022E+02 0.  0.
          5    1    4    4  501    0  0.14318127171E+02 -0.46301597462E+00 -0.24135491342E+02  0.28457601652E+02  0.47000000000E+01 0.  1.
         -5    1    4    4    0  501 -0.14680607084E+02 -0.12170432946E+02  0.26395698361E+02  0.32900798689E+02  0.47000000000E+01 0.  1.
         12    1    5    5    0    0 -0.17164497038E+02  0.31072885165E+02  0.19440636423E+02  0.40473231840E+02  0.00000000000E+00 0.  1.
        -12    1    5    5    0    0  0.17526976951E+02 -0.18439436244E+02  0.76874120375E+01  0.26576381128E+02  0.00000000000E+00 0.  1.
<mgrwt>
<rscale>  0 0.12499979E+03</rscale>
<asrwt>0</asrwt>
<pdfrwt beam="1">  1       21 0.12138175E-01 0.12499979E+03</pdfrwt>
<pdfrwt beam="2">  1       21 0.76169044E-02 0.12499979E+03</pdfrwt>
<totfact> 0.73578902E+06</totfact>
</mgrwt>
</event>
<event>
 9    1  0.4541185E-002  0.1249976E+03  0.7818608E-02  0.1235073E+00
         21   -1    0    0  503  502  0.00000000000E+00  0.00000000000E+00  0.16022040896E+03  0.16022040896E+03  0.00000000000E+00 0. -1.
         21   -1    0    0  502  503 -0.00000000000E+00 -0.00000000000E+00 -0.24379557471E+02  0.24379557471E+02  0.00000000000E+00 0. -1.
         25    2    1    2    0    0  0.00000000000E+00  0.00000000000E+00  0.13584085149E+03  0.18459996643E+03  0.12499764267E+03 0.  0.
    9000006    2    3    3    0    0 -0.15143929256E+02 -0.64810940480E+01  0.59190703983E+02  0.85876581956E+02  0.59999205970E+02 0.  0.
    9000007    2    3    3    0    0  0.15143929256E+02  0.64810940480E+01  0.76650147507E+02  0.98723384477E+02  0.59997652924E+02 0.  0.
          5    1    4    4  501    0  0.20072761191E+02 -0.77161018769E+01  0.39545857065E+02  0.45259460679E+02  0.47000000000E+01 0.  1.
         -5    1    4    4    0  501 -0.35216690447E+02  0.12350078290E+01  0.19644846918E+02  0.40617121277E+02  0.47000000000E+01 0.  1.
         12    1    5    5    0    0  0.80417313637E+01 -0.15506885451E+02  0.73327210609E+02  0.75379126789E+02  0.00000000000E+00 0. -1.
        -12    1    5    5    0    0  0.71021978923E+01  0.21987979499E+02  0.33229368976E+01  0.23344257688E+02  0.00000000000E+00 0. -1.
<mgrwt>
<rscale>  0 0.12499764E+03</rscale>
<asrwt>0</asrwt>
<pdfrwt beam="1">  1       21 0.24649293E-01 0.12499764E+03</pdfrwt>
<pdfrwt beam="2">  1       21 0.37507013E-02 0.12499764E+03</pdfrwt>
<totfact> 0.66631703E+06</totfact>
</mgrwt>
</event>
<event>
 9    1  0.4541185E-002  0.1250004E+03  0.7818608E-02  0.1235069E+00
         21   -1    0    0  503  502  0.00000000000E+00  0.00000000000E+00  0.17834118102E+02  0.17834118102E+02  0.00000000000E+00 0.  1.
         21   -1    0    0  502  503 -0.00000000000E+00 -0.00000000000E+00 -0.21903378383E+03  0.21903378383E+03  0.00000000000E+00 0.  1.
         25    2    1    2    0    0  0.35527136788E-14  0.17763568394E-14 -0.20119966573E+03  0.23686790193E+03  0.12500038991E+03 0.  0.
    9000006    2    3    3    0    0 -0.11833229373E+02 -0.76631979842E+01 -0.80950166974E+02  0.10174339793E+03  0.60000329743E+02 0.  0.
    9000007    2    3    3    0    0  0.11833229373E+02  0.76631979842E+01 -0.12024949875E+03  0.13512450400E+03  0.59999497577E+02 0.  0.
          5    1    4    4  501    0 -0.35445582671E+02 -0.10226135092E+02 -0.44642464119E+02  0.58103380043E+02  0.47000000000E+01 0. -1.
         -5    1    4    4    0  501  0.23612353298E+02  0.25629371074E+01 -0.36307702855E+02  0.43640017890E+02  0.47000000000E+01 0. -1.
         12    1    5    5    0    0  0.82190083134E+01  0.31446864530E+02 -0.41095750621E+02  0.52395783280E+02  0.00000000000E+00 0.  1.
        -12    1    5    5    0    0  0.36142210593E+01 -0.23783666545E+02 -0.79153748132E+02  0.82728720718E+02  0.00000000000E+00 0.  1.
<mgrwt>
<rscale>  0 0.12500039E+03</rscale>
<asrwt>0</asrwt>
<pdfrwt beam="1">  1       21 0.27437102E-02 0.12500039E+03</pdfrwt>
<pdfrwt beam="2">  1       21 0.33697509E-01 0.12500039E+03</pdfrwt>
<totfact> 0.61136468E+06</totfact>
</mgrwt>
</event>
<event>
 9    1  0.4541185E-002  0.1250011E+03  0.7818608E-02  0.1235068E+00
         21   -1    0    0  503  502  0.00000000000E+00  0.00000000000E+00  0.10428718344E+02  0.10428718344E+02  0.00000000000E+00 0.  1.
         21   -1    0    0  502  503 -0.00000000000E+00 -0.00000000000E+00 -0.37457305045E+03  0.37457305045E+03  0.00000000000E+00 0.  1.
         25    2    1    2    0    0  0.00000000000E+00  0.00000000000E+00 -0.36414433210E+03  0.38500176879E+03  0.12500106948E+03 0.  0.
    9000006    2    3    3    0    0  0.17072900564E+02  0.38454495709E+01 -0.18219425523E+03  0.19261642737E+03  0.60000583664E+02 0.  0.
    9000007    2    3    3    0    0 -0.17072900564E+02 -0.38454495709E+01 -0.18195007688E+03  0.19238534142E+03  0.60000147514E+02 0.  0.
          5    1    4    4  501    0  0.20184146591E+02  0.29597488154E+02 -0.10679435736E+03  0.11274101224E+03  0.47000000000E+01 0. -1.
         -5    1    4    4    0  501 -0.31112460269E+01 -0.25752038584E+02 -0.75399897869E+02  0.79875415127E+02  0.47000000000E+01 0.  1.
         12    1    5    5    0    0 -0.11868292823E+02  0.89033808442E+01 -0.61728409833E+01  0.16069552912E+02  0.00000000000E+00 0. -1.
        -12    1    5    5    0    0 -0.52046077404E+01 -0.12748830415E+02 -0.17577723589E+03  0.17631578851E+03  0.00000000000E+00 0. -1.
<mgrwt>
<rscale>  0 0.12500107E+03</rscale>
<asrwt>0</asrwt>
<pdfrwt beam="1">  1       21 0.16044182E-02 0.12500107E+03</pdfrwt>
<pdfrwt beam="2">  1       21 0.57626624E-01 0.12500107E+03</pdfrwt>
<totfact> 0.49051028E+06</totfact>
</mgrwt>
</event>
<event>
 9    1  0.4541185E-002  0.1250012E+03  0.7818608E-02  0.1235067E+00
         21   -1    0    0  503  502  0.00000000000E+00  0.00000000000E+00  0.15836590580E+02  0.15836590580E+02  0.00000000000E+00 0.  1.
         21   -1    0    0  502  503 -0.00000000000E+00 -0.00000000000E+00 -0.24666444988E+03  0.24666444988E+03  0.00000000000E+00 0.  1.
         25    2    1    2    0    0 -0.17763568394E-14  0.88817841970E-15 -0.23082785930E+03  0.26250104046E+03  0.12500118245E+03 0.  0.
    9000006    2    3    3    0    0 -0.93584451652E+01 -0.42462963091E+01 -0.85657826395E+02  0.10508452842E+03  0.59999028016E+02 0.  0.
    9000007    2    3    3    0    0  0.93584451652E+01  0.42462963091E+01 -0.14517003290E+03  0.15741651204E+03  0.60000069000E+02 0.  0.
          5    1    4    4  501    0 -0.12290901436E+02 -0.14909766411E+02 -0.13578653813E+01  0.19932415582E+02  0.47000000000E+01 0.  1.
         -5    1    4    4    0  501  0.29324562705E+01  0.10663470102E+02 -0.84299961014E+02  0.85152112842E+02  0.47000000000E+01 0.  1.
         12    1    5    5    0    0  0.22141120856E+02  0.46716063273E+00 -0.15424826992E+02  0.26988381936E+02  0.00000000000E+00 0.  1.
        -12    1    5    5    0    0 -0.12782675690E+02  0.37791356764E+01 -0.12974520591E+03  0.13042813010E+03  0.00000000000E+00 0.  1.
<mgrwt>
<rscale>  0 0.12500118E+03</rscale>
<asrwt>0</asrwt>
<pdfrwt beam="1">  1       21 0.24363986E-02 0.12500118E+03</pdfrwt>
<pdfrwt beam="2">  1       21 0.37948376E-01 0.12500118E+03</pdfrwt>
<totfact> 0.58719045E+06</totfact>
</mgrwt>
</event>
<event>
 9    1  0.4541185E-002  0.1250039E+03  0.7818608E-02  0.1235063E+00
         21   -1    0    0  503  502  0.00000000000E+00  0.00000000000E+00  0.13730412564E+02  0.13730412564E+02  0.00000000000E+00 0.  1.
         21   -1    0    0  502  503 -0.00000000000E+00 -0.00000000000E+00 -0.28451405822E+03  0.28451405822E+03  0.00000000000E+00 0.  1.
         25    2    1    2    0    0  0.00000000000E+00 -0.35527136788E-14 -0.27078364566E+03  0.29824447079E+03  0.12500392633E+03 0.  0.
    9000006    2    3    3    0    0 -0.93041242718E+01 -0.94913398796E+01 -0.16258303787E+03  0.17380984239E+03  0.59999707061E+02 0.  0.
    9000007    2    3    3    0    0  0.93041242718E+01  0.94913398796E+01 -0.10820060779E+03  0.12443462840E+03  0.59999607975E+02 0.  0.
          5    1    4    4  501    0 -0.15363897610E+01  0.16196326441E+02 -0.13103941607E+03  0.13212910371E+03  0.47000000000E+01 0. -1.
         -5    1    4    4    0  501 -0.77677345108E+01 -0.25687666321E+02 -0.31543621797E+02  0.41680738675E+02  0.47000000000E+01 0. -1.
         12    1    5    5    0    0 -0.44494084182E+00  0.33856161998E+02 -0.47778204667E+02  0.58559324781E+02  0.00000000000E+00 0.  1.
        -12    1    5    5    0    0  0.97490651136E+01 -0.24364822118E+02 -0.60422403126E+02  0.65875303620E+02  0.00000000000E+00 0.  1.
<mgrwt>
<rscale>  0 0.12500393E+03</rscale>
<asrwt>0</asrwt>
<pdfrwt beam="1">  1       21 0.21123713E-02 0.12500393E+03</pdfrwt>
<pdfrwt beam="2">  1       21 0.43771391E-01 0.12500393E+03</pdfrwt>
<totfact> 0.55596897E+06</totfact>
</mgrwt>
</event>
<event>
 9    1  0.4541185E-002  0.1249991E+03  0.7818608E-02  0.1235071E+00
         21   -1    0    0  503  502  0.00000000000E+00  0.00000000000E+00  0.84761410079E+01  0.84761410079E+01  0.00000000000E+00 0. -1.
         21   -1    0    0  502  503 -0.00000000000E+00 -0.00000000000E+00 -0.46084611671E+03  0.46084611671E+03  0.00000000000E+00 0. -1.
         25    2    1    2    0    0  0.17763568394E-14  0.17763568394E-14 -0.45236997570E+03  0.46932225772E+03  0.12499914669E+03 0.  0.
    9000006    2    3    3    0    0  0.47312624178E+01 -0.15210880915E+02 -0.19896628345E+03  0.20842588805E+03  0.60000109311E+02 0.  0.
    9000007    2    3    3    0    0 -0.47312624178E+01  0.15210880915E+02 -0.25340369225E+03  0.26089636967E+03  0.59997739262E+02 0.  0.
          5    1    4    4  501    0 -0.12634053848E+02 -0.29338273918E+02 -0.16014122684E+03  0.16336357051E+03  0.47000000000E+01 0. -1.
         -5    1    4    4    0  501  0.17365316266E+02  0.14127393003E+02 -0.38825056607E+02  0.45062317546E+02  0.47000000000E+01 0. -1.
         12    1    5    5    0    0 -0.17419531076E+02  0.32747322884E+02 -0.19741273536E+03  0.20086715834E+03  0.00000000000E+00 0. -1.
        -12    1    5    5    0    0  0.12688268658E+02 -0.17536441969E+02 -0.55990956893E+02  0.60029211325E+02  0.00000000000E+00 0. -1.
<mgrwt>
<rscale>  0 0.12499915E+03</rscale>
<asrwt>0</asrwt>
<pdfrwt beam="1">  1       21 0.13040216E-02 0.12499915E+03</pdfrwt>
<pdfrwt beam="2">  1       21 0.70899406E-01 0.12499915E+03</pdfrwt>
<totfact> 0.43759126E+06</totfact>
</mgrwt>
</event>
<event>
 9    1  0.4541185E-002  0.1250001E+03  0.7818608E-02  0.1235069E+00
         21   -1    0    0  503  502  0.00000000000E+00  0.00000000000E+00  0.51146502762E+02  0.51146502762E+02  0.00000000000E+00 0. -1.
         21   -1    0    0  502  503 -0.00000000000E+00 -0.00000000000E+00 -0.76373858895E+02  0.76373858895E+02  0.00000000000E+00 0. -1.
         25    2    1    2    0    0  0.00000000000E+00  0.35527136788E-14 -0.25227356134E+02  0.12752036166E+03  0.12500009256E+03 0.  0.
    9000006    2    3    3    0    0 -0.89045621592E+01  0.75091168082E+01  0.70942282255E+00  0.61125161400E+02  0.60000866768E+02 0.  0.
    9000007    2    3    3    0    0  0.89045621592E+01 -0.75091168082E+01 -0.25936778956E+02  0.66395200257E+02  0.59999400431E+02 0.  0.
          5    1    4    4  501    0 -0.76551533507E+01 -0.25683355460E+02  0.36364253087E+01  0.27450859905E+02  0.47000000000E+01 0. -1.
         -5    1    4    4    0  501 -0.12494088085E+01  0.33192472268E+02 -0.29270024861E+01  0.33674301495E+02  0.47000000000E+01 0. -1.
         12    1    5    5    0    0  0.30238254204E+02 -0.18526231614E+02 -0.78139073686E+01  0.36312951181E+02  0.00000000000E+00 0.  1.
        -12    1    5    5    0    0 -0.21333692045E+02  0.11017114806E+02 -0.18122871588E+02  0.30082249076E+02  0.00000000000E+00 0.  1.
<mgrwt>
<rscale>  0 0.12500009E+03</rscale>
<asrwt>0</asrwt>
<pdfrwt beam="1">  1       21 0.78686928E-02 0.12500009E+03</pdfrwt>
<pdfrwt beam="2">  1       21 0.11749824E-01 0.12500009E+03</pdfrwt>
<totfact> 0.73698284E+06</totfact>
</mgrwt>
</event>
<event>
 9    1  0.4541185E-002  0.1250025E+03  0.7818608E-02  0.1235065E+00
         21   -1    0    0  503  502  0.00000000000E+00  0.00000000000E+00  0.14419225557E+02  0.14419225557E+02  0.00000000000E+00 0. -1.
         21   -1    0    0  502  503 -0.00000000000E+00 -0.00000000000E+00 -0.27091631833E+03  0.27091631833E+03  0.00000000000E+00 0. -1.
         25    2    1    2    0    0  0.88817841970E-15  0.17763568394E-14 -0.25649709277E+03  0.28533554389E+03  0.12500245599E+03 0.  0.
    9000006    2    3    3    0    0  0.30434534161E+01  0.49396300780E+00 -0.88901647263E+02  0.10729629217E+03  0.59995706671E+02 0.  0.
    9000007    2    3    3    0    0 -0.30434534161E+01 -0.49396300780E+00 -0.16759544551E+03  0.17803925172E+03  0.60001959870E+02 0.  0.
          5    1    4    4  501    0  0.18525156043E+02 -0.37151281186E+01 -0.28997589730E+01  0.19684567190E+02  0.47000000000E+01 0. -1.
         -5    1    4    4    0  501 -0.15481702627E+02  0.42090911264E+01 -0.86001888290E+02  0.87611724979E+02  0.47000000000E+01 0. -1.
         12    1    5    5    0    0  0.48722424209E+01  0.14016303079E+02 -0.66733348778E+01  0.16270491591E+02  0.00000000000E+00 0.  1.
        -12    1    5    5    0    0 -0.79156958370E+01 -0.14510266087E+02 -0.16092211063E+03  0.16176876013E+03  0.00000000000E+00 0.  1.
<mgrwt>
<rscale>  0 0.12500246E+03</rscale>
<asrwt>0</asrwt>
<pdfrwt beam="1">  1       21 0.22183423E-02 0.12500246E+03</pdfrwt>
<pdfrwt beam="2">  1       21 0.41679435E-01 0.12500246E+03</pdfrwt>
<totfact> 0.56693797E+06</totfact>
</mgrwt>
</event>
<event>
 9    1  0.4541185E-002  0.1250011E+03  0.7818608E-02  0.1235068E+00
         21   -1    0    0  503  502  0.00000000000E+00  0.00000000000E+00  0.72272451358E+01  0.72272451358E+01  0.00000000000E+00 0. -1.
         21   -1    0    0  502  503 -0.00000000000E+00 -0.00000000000E+00 -0.54049862688E+03  0.54049862688E+03  0.00000000000E+00 0. -1.
         25    2    1    2    0    0  0.88817841970E-15  0.00000000000E+00 -0.53327138175E+03  0.54772587202E+03  0.12500105715E+03 0.  0.
    9000006    2    3    3    0    0  0.42262528630E+01 -0.63225803090E+01 -0.33572936752E+03  0.34113332844E+03  0.59999194332E+02 0.  0.
    9000007    2    3    3    0    0 -0.42262528630E+01  0.63225803090E+01 -0.19754201423E+03  0.20659254358E+03  0.59998295338E+02 0.  0.
          5    1    4    4  501    0  0.15264838664E+02 -0.14394511184E+02 -0.31569088809E+03  0.31642225597E+03  0.47000000000E+01 0.  1.
         -5    1    4    4    0  501 -0.11038585801E+02  0.80719308748E+01 -0.20038479432E+02  0.24711072467E+02  0.47000000000E+01 0.  1.
         12    1    5    5    0    0 -0.78408785663E+01  0.25659859237E+02 -0.17333804187E+03  0.17540235036E+03  0.00000000000E+00 0. -1.
        -12    1    5    5    0    0  0.36146257033E+01 -0.19337278928E+02 -0.24203972360E+02  0.31190193224E+02  0.00000000000E+00 0. -1.
<mgrwt>
<rscale>  0 0.12500106E+03</rscale>
<asrwt>0</asrwt>
<pdfrwt beam="1">  1       21 0.11118838E-02 0.12500106E+03</pdfrwt>
<pdfrwt beam="2">  1       21 0.83153639E-01 0.12500106E+03</pdfrwt>
<totfact> 0.39567635E+06</totfact>
</mgrwt>
</event>
<event>
 8    1  0.4541185E-002  0.1250810E+03  0.7818608E-02  0.1234943E+00
         21   -1    0    0  503  502  0.00000000000E+00  0.00000000000E+00  0.16112989727E+02  0.16112989727E+02  0.00000000000E+00 0. -1.
         21   -1    0    0  502  503 -0.00000000000E+00 -0.00000000000E+00 -0.24274291051E+03  0.24274291051E+03  0.00000000000E+00 0. -1.
    9000006    2    1    2    0    0  0.13790742080E+02 -0.10028319359E+02 -0.12270527439E+03  0.13764929210E+03  0.59999929127E+02 0.  0.
    9000007    2    1    2    0    0 -0.13790742080E+02  0.10028319359E+02 -0.10392464638E+03  0.12120660813E+03  0.59999649769E+02 0.  0.
          5    1    3    3  501    0  0.13264579348E+02  0.16207268851E+02 -0.10104756116E+03  0.10330210185E+03  0.47000000000E+01 0. -1.
         -5    1    3    3    0  501  0.52616273253E+00 -0.26235588210E+02 -0.21657713232E+02  0.34347190254E+02  0.47000000000E+01 0. -1.
         12    1    4    4    0    0 -0.21587181035E+02 -0.15088654805E+02 -0.84505935813E+02  0.88515123434E+02  0.00000000000E+00 0. -1.
        -12    1    4    4    0    0  0.77964389548E+01  0.25116974163E+02 -0.19418710572E+02  0.32691484698E+02  0.00000000000E+00 0. -1.
<mgrwt>
<rscale>  0 0.12508100E+03</rscale>
<asrwt>0</asrwt>
<pdfrwt beam="1">  1       21 0.24789215E-02 0.12508100E+03</pdfrwt>
<pdfrwt beam="2">  1       21 0.37345064E-01 0.12508100E+03</pdfrwt>
<totfact> 0.58933949E+06</totfact>
</mgrwt>
</event>
<event>
 9    1  0.4541185E-002  0.1250004E+03  0.7818608E-02  0.1235069E+00
         21   -1    0    0  503  502  0.00000000000E+00  0.00000000000E+00  0.24596414350E+02  0.24596414350E+02  0.00000000000E+00 0. -1.
         21   -1    0    0  502  503 -0.00000000000E+00 -0.00000000000E+00 -0.15881488895E+03  0.15881488895E+03  0.00000000000E+00 0. -1.
         25    2    1    2    0    0  0.17763568394E-14  0.00000000000E+00 -0.13421847460E+03  0.18341130330E+03  0.12500042902E+03 0.  0.
    9000006    2    3    3    0    0 -0.28425155818E+01 -0.72334572257E+01 -0.44109639023E+02  0.74873272468E+02  0.59999532307E+02 0.  0.
    9000007    2    3    3    0    0  0.28425155818E+01  0.72334572257E+01 -0.90108835579E+02  0.10853803083E+03  0.60004158936E+02 0.  0.
          5    1    4    4  501    0  0.14782019131E+02  0.18932710649E+02 -0.60439384135E+01  0.25210609149E+02  0.47000000000E+01 0. -1.
         -5    1    4    4    0  501 -0.17624534713E+02 -0.26166167875E+02 -0.38065700610E+02  0.49662663320E+02  0.47000000000E+01 0. -1.
         12    1    5    5    0    0  0.84421947613E+01 -0.18766238897E+02 -0.75375451808E+02  0.78133866601E+02  0.00000000000E+00 0. -1.
        -12    1    5    5    0    0 -0.55996791795E+01  0.25999696123E+02 -0.14733383771E+02  0.30404164233E+02  0.00000000000E+00 0. -1.
<mgrwt>
<rscale>  0 0.12500043E+03</rscale>
<asrwt>0</asrwt>
<pdfrwt beam="1">  1       21 0.37840637E-02 0.12500043E+03</pdfrwt>
<pdfrwt beam="2">  1       21 0.24433060E-01 0.12500043E+03</pdfrwt>
<totfact> 0.66761615E+06</totfact>
</mgrwt>
</event>
<event>
 9    1  0.4541185E-002  0.1249995E+03  0.7818608E-02  0.1235070E+00
         21   -1    0    0  503  502  0.00000000000E+00  0.00000000000E+00  0.28598242043E+03  0.28598242043E+03  0.00000000000E+00 0. -1.
         21   -1    0    0  502  503 -0.00000000000E+00 -0.00000000000E+00 -0.13658941932E+02  0.13658941932E+02  0.00000000000E+00 0. -1.
         25    2    1    2    0    0  0.88817841970E-15  0.35527136788E-14  0.27232347850E+03  0.29964136236E+03  0.12499947638E+03 0.  0.
    9000006    2    3    3    0    0  0.35653109591E+01  0.13208868576E+02  0.16230830536E+03  0.17358332570E+03  0.59999994323E+02 0.  0.
    9000007    2    3    3    0    0 -0.35653109591E+01 -0.13208868576E+02  0.11001517313E+03  0.12605803666E+03  0.60000871965E+02 0.  0.
          5    1    4    4  501    0 -0.50304858458E+01  0.15078835596E+01  0.15739272048E+03  0.15755042989E+03  0.47000000000E+01 0. -1.
         -5    1    4    4    0  501  0.85957968049E+01  0.11700985016E+02  0.49155848870E+01  0.16032895803E+02  0.47000000000E+01 0. -1.
         12    1    5    5    0    0 -0.21390752819E+02  0.12037419270E+02  0.22692448661E+02  0.33427698023E+02  0.00000000000E+00 0. -1.
        -12    1    5    5    0    0  0.17825441860E+02 -0.25246287846E+02  0.87322724471E+02  0.92630338640E+02  0.00000000000E+00 0. -1.
<mgrwt>
<rscale>  0 0.12499948E+03</rscale>
<asrwt>0</asrwt>
<pdfrwt beam="1">  1       21 0.43997291E-01 0.12499948E+03</pdfrwt>
<pdfrwt beam="2">  1       21 0.21013759E-02 0.12499948E+03</pdfrwt>
<totfact> 0.55486723E+06</totfact>
</mgrwt>
</event>
<event>
 9    1  0.4541185E-002  0.1250043E+03  0.7818608E-02  0.1235062E+00
         21   -1    0    0  503  502  0.00000000000E+00  0.00000000000E+00  0.17802341084E+02  0.17802341084E+02  0.00000000000E+00 0.  1.
         21   -1    0    0  502  503 -0.00000000000E+00 -0.00000000000E+00 -0.21943863352E+03  0.21943863352E+03  0.00000000000E+00 0.  1.
         25    2    1    2    0    0  0.00000000000E+00  0.35527136788E-14 -0.20163629243E+03  0.23724097460E+03  0.12500434234E+03 0.  0.
    9000006    2    3    3    0    0  0.37300771083E+01 -0.16717545219E+02 -0.93936161733E+02  0.11277126333E+03  0.59999712992E+02 0.  0.
    9000007    2    3    3    0    0 -0.37300771083E+01  0.16717545219E+02 -0.10770013070E+03  0.12446971127E+03  0.60000008977E+02 0.  0.
          5    1    4    4  501    0  0.29827344048E+02  0.11717886531E+00 -0.55016796494E+02  0.62758442303E+02  0.47000000000E+01 0. -1.
         -5    1    4    4    0  501 -0.26097266940E+02 -0.16834724084E+02 -0.38919365239E+02  0.50012821030E+02  0.47000000000E+01 0. -1.
         12    1    5    5    0    0 -0.27361261427E+02  0.13870116227E+02 -0.89188166093E+02  0.94316211343E+02  0.00000000000E+00 0.  1.
        -12    1    5    5    0    0  0.23631184319E+02  0.28474289922E+01 -0.18511964605E+02  0.30153499925E+02  0.00000000000E+00 0.  1.
<mgrwt>
<rscale>  0 0.12500434E+03</rscale>
<asrwt>0</asrwt>
<pdfrwt beam="1">  1       21 0.27388217E-02 0.12500434E+03</pdfrwt>
<pdfrwt beam="2">  1       21 0.33759790E-01 0.12500434E+03</pdfrwt>
<totfact> 0.61093980E+06</totfact>
</mgrwt>
</event>
<event>
 9    1  0.4541185E-002  0.1249992E+03  0.7818608E-02  0.1235070E+00
         21   -1    0    0  503  502  0.00000000000E+00  0.00000000000E+00  0.39559735377E+03  0.39559735377E+03  0.00000000000E+00 0. -1.
         21   -1    0    0  502  503 -0.00000000000E+00 -0.00000000000E+00 -0.98741859757E+01  0.98741859757E+01  0.00000000000E+00 0. -1.
         25    2    1    2    0    0  0.35527136788E-14  0.00000000000E+00  0.38572316779E+03  0.40547153975E+03  0.12499922948E+03 0.  0.
    9000006    2    3    3    0    0  0.32011153677E+01  0.46744173176E+01  0.13915956783E+03  0.15164926003E+03  0.60000128600E+02 0.  0.
    9000007    2    3    3    0    0 -0.32011153677E+01 -0.46744173176E+01  0.24656359996E+03  0.25382227971E+03  0.60000362800E+02 0.  0.
          5    1    4    4  501    0  0.31019172281E+02  0.29755968958E+01  0.82933482757E+02  0.88719196277E+02  0.47000000000E+01 0. -1.
         -5    1    4    4    0  501 -0.27818056913E+02  0.16988204218E+01  0.56226085078E+02  0.62930063757E+02  0.47000000000E+01 0. -1.
         12    1    5    5    0    0  0.20230400035E+02 -0.20768609555E+02  0.16293513675E+03  0.16549460117E+03  0.00000000000E+00 0.  1.
        -12    1    5    5    0    0 -0.23431515403E+02  0.16094192238E+02  0.83628463207E+02  0.88327678539E+02  0.00000000000E+00 0.  1.
<mgrwt>
<rscale>  0 0.12499923E+03</rscale>
<asrwt>0</asrwt>
<pdfrwt beam="1">  1       21 0.60861119E-01 0.12499923E+03</pdfrwt>
<pdfrwt beam="2">  1       21 0.15191058E-02 0.12499923E+03</pdfrwt>
<totfact> 0.47681458E+06</totfact>
</mgrwt>
</event>
<event>
 9    1  0.4541185E-002  0.1250019E+03  0.7818608E-02  0.1235066E+00
         21   -1    0    0  503  502  0.00000000000E+00  0.00000000000E+00  0.13430092373E+04  0.13430092373E+04  0.00000000000E+00 0.  1.
         21   -1    0    0  502  503 -0.00000000000E+00 -0.00000000000E+00 -0.29086676176E+01  0.29086676176E+01  0.00000000000E+00 0.  1.
         25    2    1    2    0    0  0.35527136788E-14  0.22204460493E-14  0.13401005697E+04  0.13459179049E+04  0.12500187965E+03 0.  0.
    9000006    2    3    3    0    0  0.17198584941E+02 -0.12536162557E+01  0.63761172815E+03  0.64066061225E+03  0.59999511169E+02 0.  0.
    9000007    2    3    3    0    0 -0.17198584941E+02  0.12536162557E+01  0.70248884153E+03  0.70525729266E+03  0.59999279173E+02 0.  0.
          5    1    4    4  501    0  0.16649866830E+02  0.27724599972E+02  0.37119161246E+03  0.37262739388E+03  0.47000000000E+01 0. -1.
         -5    1    4    4    0  501  0.54871811092E+00 -0.28978216227E+02  0.26642011569E+03  0.26803321837E+03  0.47000000000E+01 0. -1.
         12    1    5    5    0    0 -0.20221486480E+02  0.12376927281E+01  0.72942410851E+02  0.75703604270E+02  0.00000000000E+00 0.  1.
        -12    1    5    5    0    0  0.30229015389E+01  0.15923527646E-01  0.62954643068E+03  0.62955368839E+03  0.00000000000E+00 0.  1.
<mgrwt>
<rscale>  0 0.12500188E+03</rscale>
<asrwt>0</asrwt>
<pdfrwt beam="1">  1       21 0.20661631E+00 0.12500188E+03</pdfrwt>
<pdfrwt beam="2">  1       21 0.44748840E-03 0.12500188E+03</pdfrwt>
<totfact> 0.16446786E+06</totfact>
</mgrwt>
</event>
<event>
 9    1  0.4541185E-002  0.1250052E+03  0.7818608E-02  0.1235061E+00
         21   -1    0    0  503  502  0.00000000000E+00  0.00000000000E+00  0.11579899764E+03  0.11579899764E+03  0.00000000000E+00 0. -1.
         21   -1    0    0  502  503 -0.00000000000E+00 -0.00000000000E+00 -0.33735816842E+02  0.33735816842E+02  0.00000000000E+00 0. -1.
         25    2    1    2    0    0  0.35527136788E-14  0.00000000000E+00  0.82063180801E+02  0.14953481448E+03  0.12500518029E+03 0.  0.
    9000006    2    3    3    0    0  0.17028812441E+01 -0.16731894801E+02  0.46855061941E+02  0.77963567850E+02  0.60000541450E+02 0.  0.
    9000007    2    3    3    0    0 -0.17028812441E+01  0.16731894801E+02  0.35208118860E+02  0.71571246635E+02  0.59999796691E+02 0.  0.
          5    1    4    4  501    0 -0.17827272170E+02 -0.30595802971E+02  0.17471132359E+02  0.39764874681E+02  0.47000000000E+01 0. -1.
         -5    1    4    4    0  501  0.19530153415E+02  0.13863908170E+02  0.29383929582E+02  0.38198693169E+02  0.47000000000E+01 0. -1.
         12    1    5    5    0    0 -0.22281172674E+02 -0.34749288179E+01  0.36272608206E+02  0.42710980931E+02  0.00000000000E+00 0. -1.
        -12    1    5    5    0    0  0.20578291430E+02  0.20206823619E+02 -0.10644893453E+01  0.28860265704E+02  0.00000000000E+00 0. -1.
<mgrwt>
<rscale>  0 0.12500518E+03</rscale>
<asrwt>0</asrwt>
<pdfrwt beam="1">  1       21 0.17815230E-01 0.12500518E+03</pdfrwt>
<pdfrwt beam="2">  1       21 0.51901257E-02 0.12500518E+03</pdfrwt>
<totfact> 0.70808347E+06</totfact>
</mgrwt>
</event>
<event>
 9    1  0.4541185E-002  0.1250013E+03  0.7818608E-02  0.1235067E+00
         21   -1    0    0  503  502  0.00000000000E+00  0.00000000000E+00  0.12958823228E+03  0.12958823228E+03  0.00000000000E+00 0. -1.
         21   -1    0    0  502  503 -0.00000000000E+00 -0.00000000000E+00 -0.30144200632E+02  0.30144200632E+02  0.00000000000E+00 0. -1.
         25    2    1    2    0    0 -0.35527136788E-14  0.00000000000E+00  0.99444031646E+02  0.15973243291E+03  0.12500133877E+03 0.  0.
    9000006    2    3    3    0    0  0.15458034460E+02  0.58847614307E+01  0.57033189842E+02  0.84417680946E+02  0.59999823886E+02 0.  0.
    9000007    2    3    3    0    0 -0.15458034460E+02 -0.58847614307E+01  0.42410841804E+02  0.75314751965E+02  0.60000425953E+02 0.  0.
          5    1    4    4  501    0  0.28895092874E+02 -0.17198709546E+02  0.39667915948E+02  0.52214514820E+02  0.47000000000E+01 0. -1.
         -5    1    4    4    0  501 -0.13437058414E+02  0.23083470976E+02  0.17365273894E+02  0.32203166126E+02  0.47000000000E+01 0. -1.
         12    1    5    5    0    0  0.93894424242E+01  0.22193592367E+02  0.11401732055E+02  0.26659269777E+02  0.00000000000E+00 0. -1.
        -12    1    5    5    0    0 -0.24847476884E+02 -0.28078353798E+02  0.31009109749E+02  0.48655482188E+02  0.00000000000E+00 0. -1.
<mgrwt>
<rscale>  0 0.12500134E+03</rscale>
<asrwt>0</asrwt>
<pdfrwt beam="1">  1       21 0.19936651E-01 0.12500134E+03</pdfrwt>
<pdfrwt beam="2">  1       21 0.46375694E-02 0.12500134E+03</pdfrwt>
<totfact> 0.69549837E+06</totfact>
</mgrwt>
</event>
<event>
 9    1  0.4541185E-002  0.1249995E+03  0.7818608E-02  0.1235070E+00
         21   -1    0    0  503  502  0.00000000000E+00  0.00000000000E+00  0.40166471582E+01  0.40166471582E+01  0.00000000000E+00 0. -1.
         21   -1    0    0  502  503 -0.00000000000E+00 -0.00000000000E+00 -0.97250748016E+03  0.97250748016E+03  0.00000000000E+00 0. -1.
         25    2    1    2    0    0  0.17763568394E-14  0.00000000000E+00 -0.96849083300E+03  0.97652412732E+03  0.12499951050E+03 0.  0.
    9000006    2    3    3    0    0 -0.68963681375E+00  0.16842686054E+02 -0.44743710225E+03  0.45175639040E+03  0.59997701018E+02 0.  0.
    9000007    2    3    3    0    0  0.68963681375E+00 -0.16842686054E+02 -0.52105373076E+03  0.52476773692E+03  0.60000297537E+02 0.  0.
          5    1    4    4  501    0  0.20986807631E+02  0.29021759018E+02 -0.22443460750E+03  0.22732287970E+03  0.47000000000E+01 0.  1.
         -5    1    4    4    0  501 -0.21676444445E+02 -0.12179072964E+02 -0.22300249474E+03  0.22443351070E+03  0.47000000000E+01 0.  1.
         12    1    5    5    0    0  0.92118131388E+01 -0.37768957061E+02 -0.36939330069E+03  0.37143338867E+03  0.00000000000E+00 0. -1.
        -12    1    5    5    0    0 -0.85221763250E+01  0.20926271007E+02 -0.15166043006E+03  0.15333434825E+03  0.00000000000E+00 0. -1.
<mgrwt>
<rscale>  0 0.12499951E+03</rscale>
<asrwt>0</asrwt>
<pdfrwt beam="1">  1       21 0.61794622E-03 0.12499951E+03</pdfrwt>
<pdfrwt beam="2">  1       21 0.14961641E+00 0.12499951E+03</pdfrwt>
<totfact> 0.24214765E+06</totfact>
</mgrwt>
</event>
<event>
 9    1  0.4541185E-002  0.1250000E+03  0.7818608E-02  0.1235069E+00
         21   -1    0    0  503  502  0.00000000000E+00  0.00000000000E+00  0.11328547107E+03  0.11328547107E+03  0.00000000000E+00 0. -1.
         21   -1    0    0  502  503 -0.00000000000E+00 -0.00000000000E+00 -0.34481468960E+02  0.34481468960E+02  0.00000000000E+00 0. -1.
         25    2    1    2    0    0  0.00000000000E+00  0.17763568394E-14  0.78804002109E+02  0.14776694003E+03  0.12499999127E+03 0.  0.
    9000006    2    3    3    0    0 -0.11218434400E+02  0.10957124161E+02  0.30249812384E+02  0.69005338657E+02  0.60006447767E+02 0.  0.
    9000007    2    3    3    0    0  0.11218434400E+02 -0.10957124161E+02  0.48554189725E+02  0.78761601372E+02  0.59999738921E+02 0.  0.
          5    1    4    4  501    0  0.79197907502E+01 -0.19399682471E+02  0.24125007034E+02  0.32298246545E+02  0.47000000000E+01 0.  1.
         -5    1    4    4    0  501 -0.19138225150E+02  0.30356806632E+02  0.61248053504E+01  0.36707092113E+02  0.47000000000E+01 0.  1.
         12    1    5    5    0    0  0.29849854102E+02  0.94359359915E+01  0.37895226787E+02  0.49153828856E+02  0.00000000000E+00 0.  1.
        -12    1    5    5    0    0 -0.18631419701E+02 -0.20393060153E+02  0.10658962938E+02  0.29607772516E+02  0.00000000000E+00 0.  1.
<mgrwt>
<rscale>  0 0.12499999E+03</rscale>
<asrwt>0</asrwt>
<pdfrwt beam="1">  1       21 0.17428534E-01 0.12499999E+03</pdfrwt>
<pdfrwt beam="2">  1       21 0.53048414E-02 0.12499999E+03</pdfrwt>
<totfact> 0.71040869E+06</totfact>
</mgrwt>
</event>
<event>
 9    1  0.4541185E-002  0.1249957E+03  0.7818608E-02  0.1235076E+00
         21   -1    0    0  503  502  0.00000000000E+00  0.00000000000E+00  0.37518691597E+02  0.37518691597E+02  0.00000000000E+00 0. -1.
         21   -1    0    0  502  503 -0.00000000000E+00 -0.00000000000E+00 -0.10410763939E+03  0.10410763939E+03  0.00000000000E+00 0. -1.
         25    2    1    2    0    0  0.17763568394E-14 -0.88817841970E-15 -0.66588947790E+02  0.14162633098E+03  0.12499571857E+03 0.  0.
    9000006    2    3    3    0    0 -0.12855623693E+02  0.39339953225E+01 -0.20613922804E+02  0.64851447039E+02  0.60000274916E+02 0.  0.
    9000007    2    3    3    0    0  0.12855623693E+02 -0.39339953225E+01 -0.45975024986E+02  0.76774883945E+02  0.59999470852E+02 0.  0.
          5    1    4    4  501    0 -0.36500124908E+01 -0.47308487013E+01 -0.40287513029E+02  0.40998502737E+02  0.47000000000E+01 0. -1.
         -5    1    4    4    0  501 -0.92056112022E+01  0.86648440238E+01  0.19673590225E+02  0.23852944302E+02  0.47000000000E+01 0. -1.
         12    1    5    5    0    0  0.23390204097E+02 -0.20062204125E+02 -0.48381088936E+02  0.57361341064E+02  0.00000000000E+00 0. -1.
        -12    1    5    5    0    0 -0.10534580404E+02  0.16128208803E+02  0.24060639496E+01  0.19413542881E+02  0.00000000000E+00 0. -1.
<mgrwt>
<rscale>  0 0.12499572E+03</rscale>
<asrwt>0</asrwt>
<pdfrwt beam="1">  1       21 0.57721065E-02 0.12499572E+03</pdfrwt>
<pdfrwt beam="2">  1       21 0.16016560E-01 0.12499572E+03</pdfrwt>
<totfact> 0.71835534E+06</totfact>
</mgrwt>
</event>
<event>
 9    1  0.4541185E-002  0.1249990E+03  0.7818608E-02  0.1235071E+00
         21   -1    0    0  503  502  0.00000000000E+00  0.00000000000E+00  0.66160773189E+02  0.66160773189E+02  0.00000000000E+00 0.  1.
         21   -1    0    0  502  503 -0.00000000000E+00 -0.00000000000E+00 -0.59040824758E+02  0.59040824758E+02  0.00000000000E+00 0.  1.
         25    2    1    2    0    0 -0.17763568394E-14  0.17763568394E-14  0.71199484307E+01  0.12520159795E+03  0.12499898585E+03 0.  0.
    9000006    2    3    3    0    0 -0.53987243250E+01 -0.14367596266E+02  0.11958801272E+02  0.63076348282E+02  0.60000322815E+02 0.  0.
    9000007    2    3    3    0    0  0.53987243250E+01  0.14367596266E+02 -0.48388528413E+01  0.62125249665E+02  0.60004650672E+02 0.  0.
          5    1    4    4  501    0  0.16446495698E+02 -0.28490254616E+02  0.15016838793E+02  0.36466111339E+02  0.47000000000E+01 0.  1.
         -5    1    4    4    0  501 -0.21845220023E+02  0.14122658350E+02 -0.30580375213E+01  0.26610236943E+02  0.47000000000E+01 0.  1.
         12    1    5    5    0    0  0.21513708403E+01 -0.14195285316E+02  0.19667405693E+02  0.24350387438E+02  0.00000000000E+00 0.  1.
        -12    1    5    5    0    0  0.32473534847E+01  0.28562881582E+02 -0.24506258534E+02  0.37774862227E+02  0.00000000000E+00 0.  1.
<mgrwt>
<rscale>  0 0.12499899E+03</rscale>
<asrwt>0</asrwt>
<pdfrwt beam="1">  1       21 0.10178580E-01 0.12499899E+03</pdfrwt>
<pdfrwt beam="2">  1       21 0.90832038E-02 0.12499899E+03</pdfrwt>
<totfact> 0.74018275E+06</totfact>
</mgrwt>
</event>
<event>
 9    1  0.4541185E-002  0.1249748E+03  0.7818608E-02  0.1235109E+00
         21   -1    0    0  503  502  0.00000000000E+00  0.00000000000E+00  0.26614106940E+02  0.26614106940E+02  0.00000000000E+00 0. -1.
         21   -1    0    0  502  503 -0.00000000000E+00 -0.00000000000E+00 -0.14671443135E+03  0.14671443135E+03  0.00000000000E+00 0. -1.
         25    2    1    2    0    0  0.00000000000E+00  0.35527136788E-14 -0.12010032441E+03  0.17332853829E+03  0.12497477450E+03 0.  0.
    9000006    2    3    3    0    0  0.22254550714E+01 -0.16937756699E+02 -0.65005177531E+02  0.90097671556E+02  0.60000642178E+02 0.  0.
    9000007    2    3    3    0    0 -0.22254550714E+01  0.16937756699E+02 -0.55095146876E+02  0.83230866732E+02  0.60000514293E+02 0.  0.
          5    1    4    4  501    0 -0.14729945060E+02 -0.31136794342E+02 -0.20975283059E+02  0.40602016486E+02  0.47000000000E+01 0. -1.
         -5    1    4    4    0  501  0.16955400132E+02  0.14199037642E+02 -0.44029894472E+02  0.49495655070E+02  0.47000000000E+01 0. -1.
         12    1    5    5    0    0  0.52054348307E+01  0.38856790493E+02 -0.33253419803E+02  0.51407554385E+02  0.00000000000E+00 0. -1.
        -12    1    5    5    0    0 -0.74308899021E+01 -0.21919033794E+02 -0.21841727073E+02  0.31823312347E+02  0.00000000000E+00 0. -1.
<mgrwt>
<rscale>  0 0.12497477E+03</rscale>
<asrwt>0</asrwt>
<pdfrwt beam="1">  1       21 0.40944780E-02 0.12497477E+03</pdfrwt>
<pdfrwt beam="2">  1       21 0.22571451E-01 0.12497477E+03</pdfrwt>
<totfact> 0.67968734E+06</totfact>
</mgrwt>
</event>
<event>
 9    1  0.4541185E-002  0.1250020E+03  0.7818608E-02  0.1235066E+00
         21   -1    0    0  503  502  0.00000000000E+00  0.00000000000E+00  0.21728887320E+03  0.21728887320E+03  0.00000000000E+00 0. -1.
         21   -1    0    0  502  503 -0.00000000000E+00 -0.00000000000E+00 -0.17977791596E+02  0.17977791596E+02  0.00000000000E+00 0. -1.
         25    2    1    2    0    0  0.00000000000E+00  0.00000000000E+00  0.19931108160E+03  0.23526666479E+03  0.12500198524E+03 0.  0.
    9000006    2    3    3    0    0 -0.52837456427E+01 -0.74266092136E+00  0.13104085635E+03  0.14422190099E+03  0.59998176463E+02 0.  0.
    9000007    2    3    3    0    0  0.52837456427E+01  0.74266092136E+00  0.68270225250E+02  0.91044763803E+02  0.59998798713E+02 0.  0.
          5    1    4    4  501    0 -0.27108131225E+02  0.13694647799E+02  0.91925233099E+02  0.96926428992E+02  0.47000000000E+01 0. -1.
         -5    1    4    4    0  501  0.21824385583E+02 -0.14437308720E+02  0.39115623250E+02  0.47295471997E+02  0.47000000000E+01 0. -1.
         12    1    5    5    0    0 -0.23205577284E+02 -0.14606656495E+02  0.36918928563E+02  0.45987612651E+02  0.00000000000E+00 0.  1.
        -12    1    5    5    0    0  0.28489322927E+02  0.15349317417E+02  0.31351296687E+02  0.45057151152E+02  0.00000000000E+00 0.  1.
<mgrwt>
<rscale>  0 0.12500199E+03</rscale>
<asrwt>0</asrwt>
<pdfrwt beam="1">  1       21 0.33429056E-01 0.12500199E+03</pdfrwt>
<pdfrwt beam="2">  1       21 0.27658142E-02 0.12500199E+03</pdfrwt>
<totfact> 0.61290657E+06</totfact>
</mgrwt>
</event>
<event>
 9    1  0.4541185E-002  0.1250010E+03  0.7818608E-02  0.1235068E+00
         21   -1    0    0  503  502  0.00000000000E+00  0.00000000000E+00  0.77070128194E+02  0.77070128194E+02  0.00000000000E+00 0.  1.
         21   -1    0    0  502  503 -0.00000000000E+00 -0.00000000000E+00 -0.50685134047E+02  0.50685134047E+02  0.00000000000E+00 0.  1.
         25    2    1    2    0    0  0.00000000000E+00  0.00000000000E+00  0.26384994147E+02  0.12775526224E+03  0.12500095645E+03 0.  0.
    9000006    2    3    3    0    0 -0.83109300827E+01  0.27970486420E+01 -0.22902456433E+01  0.60680376801E+02  0.59999732197E+02 0.  0.
    9000007    2    3    3    0    0  0.83109300827E+01 -0.27970486420E+01  0.28675239790E+02  0.67074885439E+02  0.59998965322E+02 0.  0.
          5    1    4    4  501    0  0.15242431711E+02  0.17157636366E+02  0.14970663466E+02  0.27801564250E+02  0.47000000000E+01 0.  1.
         -5    1    4    4    0  501 -0.23553361793E+02 -0.14360587724E+02 -0.17260909109E+02  0.32878812552E+02  0.47000000000E+01 0.  1.
         12    1    5    5    0    0  0.92160190480E+01 -0.29371514714E+02  0.26103303781E+02  0.40360913666E+02  0.00000000000E+00 0.  1.
        -12    1    5    5    0    0 -0.90508896527E+00  0.26574466072E+02  0.25719360093E+01  0.26713971773E+02  0.00000000000E+00 0.  1.
<mgrwt>
<rscale>  0 0.12500096E+03</rscale>
<asrwt>0</asrwt>
<pdfrwt beam="1">  1       21 0.11856943E-01 0.12500096E+03</pdfrwt>
<pdfrwt beam="2">  1       21 0.77977129E-02 0.12500096E+03</pdfrwt>
<totfact> 0.73664848E+06</totfact>
</mgrwt>
</event>
<event>
 9    1  0.4541185E-002  0.1250020E+03  0.7818608E-02  0.1235066E+00
         21   -1    0    0  503  502  0.00000000000E+00  0.00000000000E+00  0.33520387451E+03  0.33520387451E+03  0.00000000000E+00 0.  1.
         21   -1    0    0  502  503 -0.00000000000E+00 -0.00000000000E+00 -0.11653719995E+02  0.11653719995E+02  0.00000000000E+00 0.  1.
         25    2    1    2    0    0 -0.17763568394E-14  0.00000000000E+00  0.32355015452E+03  0.34685759451E+03  0.12500195350E+03 0.  0.
    9000006    2    3    3    0    0  0.15400355970E+02  0.77455714838E+01  0.15337720023E+03  0.16559513600E+03  0.60000155624E+02 0.  0.
    9000007    2    3    3    0    0 -0.15400355970E+02 -0.77455714838E+01  0.17017295429E+03  0.18126245851E+03  0.60000663759E+02 0.  0.
          5    1    4    4  501    0 -0.38313249358E+01 -0.22596023890E+02  0.85637008529E+02  0.88775258807E+02  0.47000000000E+01 0. -1.
         -5    1    4    4    0  501  0.19231680906E+02  0.30341595374E+02  0.67740191700E+02  0.76819877192E+02  0.47000000000E+01 0. -1.
         12    1    5    5    0    0 -0.70836489698E+00 -0.22248810719E+02  0.15241264637E+03  0.15402962745E+03  0.00000000000E+00 0.  1.
        -12    1    5    5    0    0 -0.14691991073E+02  0.14503239236E+02  0.17760307919E+02  0.27232831057E+02  0.00000000000E+00 0.  1.
<mgrwt>
<rscale>  0 0.12500195E+03</rscale>
<asrwt>0</asrwt>
<pdfrwt beam="1">  1       21 0.51569820E-01 0.12500195E+03</pdfrwt>
<pdfrwt beam="2">  1       21 0.17928803E-02 0.12500195E+03</pdfrwt>
<totfact> 0.51768817E+06</totfact>
</mgrwt>
</event>
<event>
 9    1  0.4541185E-002  0.1249991E+03  0.7818608E-02  0.1235071E+00
         21   -1    0    0  503  502  0.00000000000E+00  0.00000000000E+00  0.66568970605E+03  0.66568970605E+03  0.00000000000E+00 0.  1.
         21   -1    0    0  502  503 -0.00000000000E+00 -0.00000000000E+00 -0.58678905100E+01  0.58678905100E+01  0.00000000000E+00 0.  1.
         25    2    1    2    0    0  0.17763568394E-14  0.00000000000E+00  0.65982181554E+03  0.67155759656E+03  0.12499910894E+03 0.  0.
    9000006    2    3    3    0    0 -0.14460044740E+02  0.41051390960E+01  0.37808335530E+03  0.38311001778E+03  0.60002642534E+02 0.  0.
    9000007    2    3    3    0    0  0.14460044740E+02 -0.41051390960E+01  0.28173846024E+03  0.28844757878E+03  0.59995838707E+02 0.  0.
          5    1    4    4  501    0  0.16501190857E+01 -0.22647052345E+02  0.25454822959E+03  0.25560223602E+03  0.47000000000E+01 0.  1.
         -5    1    4    4    0  501 -0.16110163826E+02  0.26752191441E+02  0.12353512571E+03  0.12750778176E+03  0.47000000000E+01 0.  1.
         12    1    5    5    0    0  0.85397030168E+01  0.27563756987E+02  0.15605541538E+03  0.15870091335E+03  0.00000000000E+00 0.  1.
        -12    1    5    5    0    0  0.59203417235E+01 -0.31668896083E+02  0.12568304486E+03  0.12974666543E+03  0.00000000000E+00 0.  1.
<mgrwt>
<rscale>  0 0.12499911E+03</rscale>
<asrwt>0</asrwt>
<pdfrwt beam="1">  1       21 0.10241374E+00 0.12499911E+03</pdfrwt>
<pdfrwt beam="2">  1       21 0.90275291E-03 0.12499911E+03</pdfrwt>
<totfact> 0.34036552E+06</totfact>
</mgrwt>
</event>
<event>
 9    1  0.4541185E-002  0.1250010E+03  0.7818608E-02  0.1235068E+00
         21   -1    0    0  503  502  0.00000000000E+00  0.00000000000E+00  0.87168452158E+01  0.87168452158E+01  0.00000000000E+00 0. -1.
         21   -1    0    0  502  503 -0.00000000000E+00 -0.00000000000E+00 -0.44813359938E+03  0.44813359938E+03  0.00000000000E+00 0. -1.
         25    2    1    2    0    0  0.00000000000E+00  0.35527136788E-14 -0.43941675417E+03  0.45685044460E+03  0.12500097955E+03 0.  0.
    9000006    2    3    3    0    0  0.72328187631E+01 -0.15889390426E+02 -0.21502129337E+03  0.22391705833E+03  0.59999216776E+02 0.  0.
    9000007    2    3    3    0    0 -0.72328187631E+01  0.15889390426E+02 -0.22439546080E+03  0.23293338627E+03  0.59998776791E+02 0.  0.
          5    1    4    4  501    0  0.84222959729E+01 -0.24426413897E+02 -0.21203524530E+03  0.21365537675E+03  0.47000000000E+01 0.  1.
         -5    1    4    4    0  501 -0.11894772098E+01  0.85370234719E+01 -0.29860480719E+01  0.10261681581E+02  0.47000000000E+01 0.  1.
         12    1    5    5    0    0  0.22268423531E-01 -0.49022127796E+01 -0.20003479372E+03  0.20009485472E+03  0.00000000000E+00 0.  1.
        -12    1    5    5    0    0 -0.72550871867E+01  0.20791603205E+02 -0.24360667079E+02  0.32838531551E+02  0.00000000000E+00 0.  1.
<mgrwt>
<rscale>  0 0.12500098E+03</rscale>
<asrwt>0</asrwt>
<pdfrwt beam="1">  1       21 0.13410531E-02 0.12500098E+03</pdfrwt>
<pdfrwt beam="2">  1       21 0.68943634E-01 0.12500098E+03</pdfrwt>
<totfact> 0.44484083E+06</totfact>
</mgrwt>
</event>
<event>
 9    1  0.4541185E-002  0.1250000E+03  0.7818608E-02  0.1235069E+00
         21   -1    0    0  503  502  0.00000000000E+00  0.00000000000E+00  0.17932684629E+03  0.17932684629E+03  0.00000000000E+00 0.  1.
         21   -1    0    0  502  503 -0.00000000000E+00 -0.00000000000E+00 -0.21782861417E+02  0.21782861417E+02  0.00000000000E+00 0.  1.
         25    2    1    2    0    0  0.00000000000E+00 -0.17763568394E-14  0.15754398488E+03  0.20110970771E+03  0.12500002946E+03 0.  0.
    9000006    2    3    3    0    0 -0.13039778049E+02 -0.76356631407E+01  0.92965309786E+02  0.11167419202E+03  0.60001976444E+02 0.  0.
    9000007    2    3    3    0    0  0.13039778049E+02  0.76356631407E+01  0.64578675090E+02  0.89435515688E+02  0.59999725223E+02 0.  0.
          5    1    4    4  501    0  0.17319312606E+02  0.14251329757E+02  0.24787886572E+02  0.33757788875E+02  0.47000000000E+01 0. -1.
         -5    1    4    4    0  501 -0.30359090655E+02 -0.21886992898E+02  0.68177423214E+02  0.77916403149E+02  0.47000000000E+01 0. -1.
         12    1    5    5    0    0  0.14266239975E+01 -0.24119345034E+02  0.43004209836E+02  0.49326870208E+02  0.00000000000E+00 0.  1.
        -12    1    5    5    0    0  0.11613154052E+02  0.31755008175E+02  0.21574465254E+02  0.40108645480E+02  0.00000000000E+00 0.  1.
<mgrwt>
<rscale>  0 0.12500003E+03</rscale>
<asrwt>0</asrwt>
<pdfrwt beam="1">  1       21 0.27588745E-01 0.12500003E+03</pdfrwt>
<pdfrwt beam="2">  1       21 0.33512096E-02 0.12500003E+03</pdfrwt>
<totfact> 0.64807158E+06</totfact>
</mgrwt>
</event>
<event>
 9    1  0.4541185E-002  0.1250106E+03  0.7818608E-02  0.1235053E+00
         21   -1    0    0  503  502  0.00000000000E+00  0.00000000000E+00  0.13588039611E+02  0.13588039611E+02  0.00000000000E+00 0. -1.
         21   -1    0    0  502  503 -0.00000000000E+00 -0.00000000000E+00 -0.28752601403E+03  0.28752601403E+03  0.00000000000E+00 0. -1.
         25    2    1    2    0    0 -0.35527136788E-14  0.00000000000E+00 -0.27393797442E+03  0.30111405364E+03  0.12501063743E+03 0.  0.
    9000006    2    3    3    0    0 -0.71973620908E+01 -0.15714890828E+02 -0.13005418238E+03  0.14426632526E+03  0.59999353611E+02 0.  0.
    9000007    2    3    3    0    0  0.71973620908E+01  0.15714890828E+02 -0.14388379203E+03  0.15684772838E+03  0.59999203938E+02 0.  0.
          5    1    4    4  501    0  0.18293443641E+02  0.53533855292E+01 -0.15711537045E+02  0.25144606046E+02  0.47000000000E+01 0. -1.
         -5    1    4    4    0  501 -0.25490805732E+02 -0.21068276357E+02 -0.11434264534E+03  0.11912171921E+03  0.47000000000E+01 0. -1.
         12    1    5    5    0    0 -0.25851720351E+01  0.87296820661E+00  0.56429875345E+01  0.62680536258E+01  0.00000000000E+00 0. -1.
        -12    1    5    5    0    0  0.97825341259E+01  0.14841922622E+02 -0.14952677957E+03  0.15057967476E+03  0.00000000000E+00 0. -1.
<mgrwt>
<rscale>  0 0.12501064E+03</rscale>
<asrwt>0</asrwt>
<pdfrwt beam="1">  1       21 0.20904677E-02 0.12501064E+03</pdfrwt>
<pdfrwt beam="2">  1       21 0.44234769E-01 0.12501064E+03</pdfrwt>
<totfact> 0.55348925E+06</totfact>
</mgrwt>
</event>
<event>
 9    1  0.4541185E-002  0.1250050E+03  0.7818608E-02  0.1235062E+00
         21   -1    0    0  503  502  0.00000000000E+00  0.00000000000E+00  0.42510622946E+02  0.42510622946E+02  0.00000000000E+00 0. -1.
         21   -1    0    0  502  503 -0.00000000000E+00 -0.00000000000E+00 -0.91896075770E+02  0.91896075770E+02  0.00000000000E+00 0. -1.
         25    2    1    2    0    0  0.00000000000E+00  0.17763568394E-14 -0.49385452824E+02  0.13440669872E+03  0.12500495074E+03 0.  0.
    9000006    2    3    3    0    0 -0.13599034582E+02 -0.99006186792E+01 -0.29911989485E+02  0.69120773461E+02  0.59999985143E+02 0.  0.
    9000007    2    3    3    0    0  0.13599034582E+02  0.99006186792E+01 -0.19473463339E+02  0.65285925255E+02  0.60000668914E+02 0.  0.
          5    1    4    4  501    0 -0.18831531604E+02  0.73974940460E+01  0.11465062653E+02  0.23725243146E+02  0.47000000000E+01 0.  1.
         -5    1    4    4    0  501  0.52324970225E+01 -0.17298112725E+02 -0.41377052138E+02  0.45395530315E+02  0.47000000000E+01 0.  1.
         12    1    5    5    0    0  0.20006953516E+02 -0.21705757021E+02 -0.50109946995E+01  0.29942079834E+02  0.00000000000E+00 0. -1.
        -12    1    5    5    0    0 -0.64079189348E+01  0.31606375701E+02 -0.14462468640E+02  0.35343845421E+02  0.00000000000E+00 0. -1.
<mgrwt>
<rscale>  0 0.12500495E+03</rscale>
<asrwt>0</asrwt>
<pdfrwt beam="1">  1       21 0.65400959E-02 0.12500495E+03</pdfrwt>
<pdfrwt beam="2">  1       21 0.14137858E-01 0.12500495E+03</pdfrwt>
<totfact> 0.72765936E+06</totfact>
</mgrwt>
</event>
<event>
 9    1  0.4541185E-002  0.1249995E+03  0.7818608E-02  0.1235070E+00
         21   -1    0    0  503  502  0.00000000000E+00  0.00000000000E+00  0.18699346371E+03  0.18699346371E+03  0.00000000000E+00 0. -1.
         21   -1    0    0  502  503 -0.00000000000E+00 -0.00000000000E+00 -0.20889604465E+02  0.20889604465E+02  0.00000000000E+00 0. -1.
         25    2    1    2    0    0 -0.17763568394E-14 -0.35527136788E-14  0.16610385924E+03  0.20788306817E+03  0.12499951191E+03 0.  0.
    9000006    2    3    3    0    0  0.43070400792E+01  0.16878104973E+02  0.80491156293E+02  0.10189770222E+03  0.60007453318E+02 0.  0.
    9000007    2    3    3    0    0 -0.43070400792E+01 -0.16878104973E+02  0.85612702948E+02  0.10598536596E+03  0.59999515573E+02 0.  0.
          5    1    4    4  501    0 -0.17779685639E+02  0.27793131381E+02  0.63153880624E+02  0.71407828781E+02  0.47000000000E+01 0.  1.
         -5    1    4    4    0  501  0.22086725718E+02 -0.10915026408E+02  0.17337275669E+02  0.30489873435E+02  0.47000000000E+01 0.  1.
         12    1    5    5    0    0  0.57490837585E+01  0.96120391271E+01 -0.40825964926E+01  0.11921025726E+02  0.00000000000E+00 0. -1.
        -12    1    5    5    0    0 -0.10056123838E+02 -0.26490144100E+02  0.89695299441E+02  0.94064340230E+02  0.00000000000E+00 0. -1.
<mgrwt>
<rscale>  0 0.12499951E+03</rscale>
<asrwt>0</asrwt>
<pdfrwt beam="1">  1       21 0.28768224E-01 0.12499951E+03</pdfrwt>
<pdfrwt beam="2">  1       21 0.32137854E-02 0.12499951E+03</pdfrwt>
<totfact> 0.64083743E+06</totfact>
</mgrwt>
</event>
<event>
 9    1  0.4541185E-002  0.1250058E+03  0.7818608E-02  0.1235060E+00
         21   -1    0    0  503  502  0.00000000000E+00  0.00000000000E+00  0.28179787256E+02  0.28179787256E+02  0.00000000000E+00 0.  1.
         21   -1    0    0  502  503 -0.00000000000E+00 -0.00000000000E+00 -0.13863172341E+03  0.13863172341E+03  0.00000000000E+00 0.  1.
         25    2    1    2    0    0  0.00000000000E+00 -0.88817841970E-15 -0.11045193615E+03  0.16681151066E+03  0.12500579943E+03 0.  0.
    9000006    2    3    3    0    0 -0.55982374316E+01  0.33060201372E+01 -0.33527306306E+02  0.69037947797E+02  0.59999066130E+02 0.  0.
    9000007    2    3    3    0    0  0.55982374316E+01 -0.33060201372E+01 -0.76924629846E+02  0.97773562865E+02  0.60000007391E+02 0.  0.
          5    1    4    4  501    0  0.24417801877E+02 -0.75344150876E+01 -0.60825955254E+01  0.26684910109E+02  0.47000000000E+01 0.  1.
         -5    1    4    4    0  501 -0.30016039308E+02  0.10840435225E+02 -0.27444710780E+02  0.42353037688E+02  0.47000000000E+01 0.  1.
         12    1    5    5    0    0  0.31580836774E+02 -0.49950643505E+01 -0.55515257432E+02  0.64064371743E+02  0.00000000000E+00 0. -1.
        -12    1    5    5    0    0 -0.25982599342E+02  0.16890442134E+01 -0.21409372414E+02  0.33709191122E+02  0.00000000000E+00 0. -1.
<mgrwt>
<rscale>  0 0.12500580E+03</rscale>
<asrwt>0</asrwt>
<pdfrwt beam="1">  1       21 0.43353519E-02 0.12500580E+03</pdfrwt>
<pdfrwt beam="2">  1       21 0.21327957E-01 0.12500580E+03</pdfrwt>
<totfact> 0.68686512E+06</totfact>
</mgrwt>
</event>
<event>
 8    1  0.4541185E-002  0.1251802E+03  0.7818608E-02  0.1234788E+00
         21   -1    0    0  503  502  0.00000000000E+00  0.00000000000E+00  0.10772171012E+04  0.10772171012E+04  0.00000000000E+00 0. -1.
         21   -1    0    0  502  503 -0.00000000000E+00 -0.00000000000E+00 -0.36367072500E+01  0.36367072500E+01  0.00000000000E+00 0. -1.
    9000006    2    1    2    0    0 -0.12969794619E+02 -0.64829875451E+01  0.44731649401E+03  0.45155541206E+03  0.59999997015E+02 0.  0.
    9000007    2    1    2    0    0  0.12969794619E+02  0.64829875451E+01  0.62626389994E+03  0.62929839639E+03  0.59997955288E+02 0.  0.
          5    1    3    3  501    0  0.64776689168E+01 -0.67771756361E+01  0.40056018946E+03  0.40069744906E+03  0.47000000000E+01 0.  1.
         -5    1    3    3    0  501 -0.19447463536E+02  0.29418809101E+00  0.46756304557E+02  0.50857962999E+02  0.47000000000E+01 0.  1.
         12    1    4    4    0    0  0.20491598558E+02 -0.20783661452E+02  0.20262423680E+03  0.20471552832E+03  0.00000000000E+00 0.  1.
        -12    1    4    4    0    0 -0.75218039390E+01  0.27266648997E+02  0.42363966313E+03  0.42458286808E+03  0.00000000000E+00 0.  1.
<mgrwt>
<rscale>  0 0.12518024E+03</rscale>
<asrwt>0</asrwt>
<pdfrwt beam="1">  1       21 0.16572545E+00 0.12518024E+03</pdfrwt>
<pdfrwt beam="2">  1       21 0.55949428E-03 0.12518024E+03</pdfrwt>
<totfact> 0.21585884E+06</totfact>
</mgrwt>
</event>
<event>
 9    1  0.4541185E-002  0.1250008E+03  0.7818608E-02  0.1235068E+00
         21   -1    0    0  503  502  0.00000000000E+00  0.00000000000E+00  0.17894001049E+02  0.17894001049E+02  0.00000000000E+00 0. -1.
         21   -1    0    0  502  503 -0.00000000000E+00 -0.00000000000E+00 -0.21830232385E+03  0.21830232385E+03  0.00000000000E+00 0. -1.
         25    2    1    2    0    0 -0.17763568394E-14  0.17763568394E-14 -0.20040832280E+03  0.23619632490E+03  0.12500083219E+03 0.  0.
    9000006    2    3    3    0    0 -0.27541192571E+01  0.64202237225E+01 -0.13052230348E+03  0.14382268426E+03  0.60000736287E+02 0.  0.
    9000007    2    3    3    0    0  0.27541192571E+01 -0.64202237225E+01 -0.69886019320E+02  0.92373640644E+02  0.60000244532E+02 0.  0.
          5    1    4    4  501    0  0.11375230767E+02 -0.92980762288E+01 -0.46631652506E+01  0.16114751215E+02  0.47000000000E+01 0.  1.
         -5    1    4    4    0  501 -0.14129350024E+02  0.15718299951E+02 -0.12585913823E+03  0.12770793304E+03  0.47000000000E+01 0.  1.
         12    1    5    5    0    0 -0.21280634324E+02  0.16701998983E+02 -0.30915797402E+02  0.41080514800E+02  0.00000000000E+00 0.  1.
        -12    1    5    5    0    0  0.24034753581E+02 -0.23122222705E+02 -0.38970221917E+02  0.51293125844E+02  0.00000000000E+00 0.  1.
<mgrwt>
<rscale>  0 0.12500083E+03</rscale>
<asrwt>0</asrwt>
<pdfrwt beam="1">  1       21 0.27529231E-02 0.12500083E+03</pdfrwt>
<pdfrwt beam="2">  1       21 0.33584975E-01 0.12500083E+03</pdfrwt>
<totfact> 0.61201403E+06</totfact>
</mgrwt>
</event>
<event>
 9    1  0.4541185E-002  0.1250015E+03  0.7818608E-02  0.1235067E+00
         21   -1    0    0  503  502  0.00000000000E+00  0.00000000000E+00  0.24818836054E+02  0.24818836054E+02  0.00000000000E+00 0.  1.
         21   -1    0    0  502  503 -0.00000000000E+00 -0.00000000000E+00 -0.15739432104E+03  0.15739432104E+03  0.00000000000E+00 0.  1.
         25    2    1    2    0    0  0.00000000000E+00  0.17763568394E-14 -0.13257548499E+03  0.18221315710E+03  0.12500150159E+03 0.  0.
    9000006    2    3    3    0    0  0.75322947280E+01  0.14282661639E+02 -0.76175452454E+02  0.98298737376E+02  0.59993435690E+02 0.  0.
    9000007    2    3    3    0    0 -0.75322947280E+01 -0.14282661639E+02 -0.56400032533E+02  0.83914419720E+02  0.59999468996E+02 0.  0.
          5    1    4    4  501    0 -0.11133491851E+01  0.12161492325E+02 -0.84332773031E+02  0.85341947769E+02  0.47000000000E+01 0. -1.
         -5    1    4    4    0  501  0.86456439130E+01  0.21211693142E+01  0.81573205770E+01  0.12956789607E+02  0.47000000000E+01 0. -1.
         12    1    5    5    0    0 -0.20897362187E+02  0.84224423796E+00  0.30462911404E+01  0.21135018605E+02  0.00000000000E+00 0. -1.
        -12    1    5    5    0    0  0.13365067459E+02 -0.15124905877E+02 -0.59446323674E+02  0.62779401114E+02  0.00000000000E+00 0. -1.
<mgrwt>
<rscale>  0 0.12500150E+03</rscale>
<asrwt>0</asrwt>
<pdfrwt beam="1">  1       21 0.38182825E-02 0.12500150E+03</pdfrwt>
<pdfrwt beam="2">  1       21 0.24214511E-01 0.12500150E+03</pdfrwt>
<totfact> 0.66896005E+06</totfact>
</mgrwt>
</event>
<event>
 9    1  0.4541185E-002  0.1250007E+03  0.7818608E-02  0.1235068E+00
         21   -1    0    0  503  502  0.00000000000E+00  0.00000000000E+00  0.30458832105E+03  0.30458832105E+03  0.00000000000E+00 0. -1.
         21   -1    0    0  502  503 -0.00000000000E+00 -0.00000000000E+00 -0.12824824191E+02  0.12824824191E+02  0.00000000000E+00 0. -1.
         25    2    1    2    0    0  0.00000000000E+00 -0.17763568394E-14  0.29176349686E+03  0.31741314524E+03  0.12500066669E+03 0.  0.
    9000006    2    3    3    0    0 -0.17549141380E+01  0.88713114917E+01  0.18392337469E+03  0.19367460746E+03  0.60002216008E+02 0.  0.
    9000007    2    3    3    0    0  0.17549141380E+01 -0.88713114917E+01  0.10784012217E+03  0.12373853778E+03  0.59999615762E+02 0.  0.
          5    1    4    4  501    0 -0.22454017213E+00 -0.15889321804E+02  0.13453453892E+02  0.21344938213E+02  0.47000000000E+01 0.  1.
         -5    1    4    4    0  501 -0.15303739659E+01  0.24760633296E+02  0.17046992080E+03  0.17232966925E+03  0.47000000000E+01 0.  1.
         12    1    5    5    0    0  0.37340801147E+01 -0.30454893311E+02  0.29904955379E+02  0.42845655988E+02  0.00000000000E+00 0. -1.
        -12    1    5    5    0    0 -0.19791659767E+01  0.21583581819E+02  0.77935166790E+02  0.80892881792E+02  0.00000000000E+00 0. -1.
<mgrwt>
<rscale>  0 0.12500067E+03</rscale>
<asrwt>0</asrwt>
<pdfrwt beam="1">  1       21 0.46859736E-01 0.12500067E+03</pdfrwt>
<pdfrwt beam="2">  1       21 0.19730501E-02 0.12500067E+03</pdfrwt>
<totfact> 0.54038075E+06</totfact>
</mgrwt>
</event>
<event>
 9    1  0.4541185E-002  0.1249981E+03  0.7818608E-02  0.1235072E+00
         21   -1    0    0  503  502  0.00000000000E+00  0.00000000000E+00  0.33160240853E+02  0.33160240853E+02  0.00000000000E+00 0. -1.
         21   -1    0    0  502  503 -0.00000000000E+00 -0.00000000000E+00 -0.11779559632E+03  0.11779559632E+03  0.00000000000E+00 0. -1.
         25    2    1    2    0    0  0.00000000000E+00  0.00000000000E+00 -0.84635355464E+02  0.15095583717E+03  0.12499808551E+03 0.  0.
    9000006    2    3    3    0    0 -0.32997939980E+00 -0.16515092971E+02 -0.35355009897E+02  0.71574080745E+02  0.60000126062E+02 0.  0.
    9000007    2    3    3    0    0  0.32997939980E+00  0.16515092971E+02 -0.49280345567E+02  0.79381756425E+02  0.60000446762E+02 0.  0.
          5    1    4    4  501    0  0.12630034035E+02  0.13558473012E+02 -0.33337864862E+02  0.38429847563E+02  0.47000000000E+01 0.  1.
         -5    1    4    4    0  501 -0.12960013435E+02 -0.30073565983E+02 -0.20171450352E+01  0.33144233182E+02  0.47000000000E+01 0.  1.
         12    1    5    5    0    0 -0.11349491818E+02 -0.33760717361E+01  0.10172798293E+02  0.15610722277E+02  0.00000000000E+00 0. -1.
        -12    1    5    5    0    0  0.11679471218E+02  0.19891164707E+02 -0.59453143861E+02  0.63771034147E+02  0.00000000000E+00 0. -1.
<mgrwt>
<rscale>  0 0.12499809E+03</rscale>
<asrwt>0</asrwt>
<pdfrwt beam="1">  1       21 0.51015755E-02 0.12499809E+03</pdfrwt>
<pdfrwt beam="2">  1       21 0.18122400E-01 0.12499809E+03</pdfrwt>
<totfact> 0.70642779E+06</totfact>
</mgrwt>
</event>
<event>
 9    1  0.4541185E-002  0.1249944E+03  0.7818608E-02  0.1235078E+00
         21   -1    0    0  503  502  0.00000000000E+00  0.00000000000E+00  0.14492149687E+01  0.14492149687E+01  0.00000000000E+00 0. -1.
         21   -1    0    0  502  503 -0.00000000000E+00 -0.00000000000E+00 -0.26951823647E+04  0.26951823647E+04  0.00000000000E+00 0. -1.
         25    2    1    2    0    0  0.00000000000E+00  0.35527136788E-14 -0.26937331497E+04  0.26966315797E+04  0.12499437789E+03 0.  0.
    9000006    2    3    3    0    0  0.98938092552E+01 -0.11188514902E+02 -0.15432225539E+04  0.15444607131E+04  0.59999775978E+02 0.  0.
    9000007    2    3    3    0    0 -0.98938092552E+01  0.11188514902E+02 -0.11505105958E+04  0.11521708666E+04  0.60000036013E+02 0.  0.
          5    1    4    4  501    0 -0.12624449445E+02  0.19139120048E+02 -0.50873076386E+03  0.50926885114E+03  0.47000000000E+01 0. -1.
         -5    1    4    4    0  501  0.22518258700E+02 -0.30327634950E+02 -0.10344917900E+04  0.10351918620E+04  0.47000000000E+01 0. -1.
         12    1    5    5    0    0  0.91348916390E+01  0.23916650612E+02 -0.95205945589E+03  0.95240362241E+03  0.00000000000E+00 0.  1.
        -12    1    5    5    0    0 -0.19028700894E+02 -0.12728135711E+02 -0.19845113994E+03  0.19976724416E+03  0.00000000000E+00 0.  1.
<mgrwt>
<rscale>  0 0.12499438E+03</rscale>
<asrwt>0</asrwt>
<pdfrwt beam="1">  1       21 0.22295935E-03 0.12499438E+03</pdfrwt>
<pdfrwt beam="2">  1       21 0.41463749E+00 0.12499438E+03</pdfrwt>
<totfact> 0.29500820E+05</totfact>
</mgrwt>
</event>
<event>
 9    1  0.4541185E-002  0.1250235E+03  0.7818608E-02  0.1235033E+00
         21   -1    0    0  503  502  0.00000000000E+00  0.00000000000E+00  0.15237584479E+02  0.15237584479E+02  0.00000000000E+00 0. -1.
         21   -1    0    0  502  503 -0.00000000000E+00 -0.00000000000E+00 -0.25645257703E+03  0.25645257703E+03  0.00000000000E+00 0. -1.
         25    2    1    2    0    0  0.17763568394E-14 -0.35527136788E-14 -0.24121499255E+03  0.27169016150E+03  0.12502348271E+03 0.  0.
    9000006    2    3    3    0    0  0.13459559827E+02 -0.10439937868E+02 -0.12971093410E+03  0.14392746708E+03  0.60000310865E+02 0.  0.
    9000007    2    3    3    0    0 -0.13459559827E+02  0.10439937868E+02 -0.11150405845E+03  0.12776269442E+03  0.59999991508E+02 0.  0.
          5    1    4    4  501    0 -0.10073638912E+02 -0.28426710358E+02 -0.47958762142E+02  0.56847945688E+02  0.47000000000E+01 0. -1.
         -5    1    4    4    0  501  0.23533198739E+02  0.17986772490E+02 -0.81752171954E+02  0.87079521397E+02  0.47000000000E+01 0. -1.
         12    1    5    5    0    0 -0.10011854861E+01  0.31288728976E+02 -0.32563864017E+02  0.45170700382E+02  0.00000000000E+00 0. -1.
        -12    1    5    5    0    0 -0.12458374341E+02 -0.20848791108E+02 -0.78940194433E+02  0.82591994037E+02  0.00000000000E+00 0. -1.
<mgrwt>
<rscale>  0 0.12502348E+03</rscale>
<asrwt>0</asrwt>
<pdfrwt beam="1">  1       21 0.23442437E-02 0.12502348E+03</pdfrwt>
<pdfrwt beam="2">  1       21 0.39454243E-01 0.12502348E+03</pdfrwt>
<totfact> 0.57859853E+06</totfact>
</mgrwt>
</event>
<event>
 9    1  0.4541185E-002  0.1250183E+03  0.7818608E-02  0.1235041E+00
         21   -1    0    0  503  502  0.00000000000E+00  0.00000000000E+00  0.69863588373E+02  0.69863588373E+02  0.00000000000E+00 0. -1.
         21   -1    0    0  502  503 -0.00000000000E+00 -0.00000000000E+00 -0.55928917065E+02  0.55928917065E+02  0.00000000000E+00 0. -1.
         25    2    1    2    0    0 -0.35527136788E-14 -0.88817841970E-15  0.13934671307E+02  0.12579250544E+03  0.12501831610E+03 0.  0.
    9000006    2    3    3    0    0 -0.62806358808E+01  0.43002611097E+01  0.22859601171E+02  0.64656447257E+02  0.59999634779E+02 0.  0.
    9000007    2    3    3    0    0  0.62806358808E+01 -0.43002611097E+01 -0.89249298634E+01  0.61136058181E+02  0.60000205034E+02 0.  0.
          5    1    4    4  501    0  0.13029102868E+02  0.26652318519E+02  0.15742563088E+02  0.33911972761E+02  0.47000000000E+01 0.  1.
         -5    1    4    4    0  501 -0.19309738748E+02 -0.22352057409E+02  0.71170380829E+01  0.30744474496E+02  0.47000000000E+01 0.  1.
         12    1    5    5    0    0  0.23088693067E+02 -0.41500288938E+01 -0.27458981101E+02  0.36115178672E+02  0.00000000000E+00 0. -1.
        -12    1    5    5    0    0 -0.16808057187E+02 -0.15023221589E+00  0.18534051238E+02  0.25020879509E+02  0.00000000000E+00 0. -1.
<mgrwt>
<rscale>  0 0.12501832E+03</rscale>
<asrwt>0</asrwt>
<pdfrwt beam="1">  1       21 0.10748244E-01 0.12501832E+03</pdfrwt>
<pdfrwt beam="2">  1       21 0.86044488E-02 0.12501832E+03</pdfrwt>
<totfact> 0.73900181E+06</totfact>
</mgrwt>
</event>
<event>
 9    1  0.4541185E-002  0.1250024E+03  0.7818608E-02  0.1235066E+00
         21   -1    0    0  503  502  0.00000000000E+00  0.00000000000E+00  0.20482559657E+02  0.20482559657E+02  0.00000000000E+00 0. -1.
         21   -1    0    0  502  503 -0.00000000000E+00 -0.00000000000E+00 -0.19071835669E+03  0.19071835669E+03  0.00000000000E+00 0. -1.
         25    2    1    2    0    0 -0.17763568394E-14  0.00000000000E+00 -0.17023579703E+03  0.21120091635E+03  0.12500240188E+03 0.  0.
    9000006    2    3    3    0    0  0.37732856098E+01 -0.31726436626E+00 -0.56243630918E+02  0.82326778057E+02  0.60000116879E+02 0.  0.
    9000007    2    3    3    0    0 -0.37732856098E+01  0.31726436626E+00 -0.11399216612E+03  0.12887413829E+03  0.59999927029E+02 0.  0.
          5    1    4    4  501    0 -0.83916289828E+00 -0.12699787513E+02 -0.64594591594E+02  0.66004091240E+02  0.47000000000E+01 0.  1.
         -5    1    4    4    0  501  0.46124485080E+01  0.12382523146E+02  0.83509606764E+01  0.16322686817E+02  0.47000000000E+01 0.  1.
         12    1    5    5    0    0 -0.26827856856E+02  0.16820115067E+02 -0.63882071577E+02  0.71299153174E+02  0.00000000000E+00 0.  1.
        -12    1    5    5    0    0  0.23054571246E+02 -0.16502850700E+02 -0.50110094538E+02  0.57574985117E+02  0.00000000000E+00 0.  1.
<mgrwt>
<rscale>  0 0.12500240E+03</rscale>
<asrwt>0</asrwt>
<pdfrwt beam="1">  1       21 0.31511631E-02 0.12500240E+03</pdfrwt>
<pdfrwt beam="2">  1       21 0.29341285E-01 0.12500240E+03</pdfrwt>
<totfact> 0.63729536E+06</totfact>
</mgrwt>
</event>
<event>
 9    1  0.4541185E-002  0.1250086E+03  0.7818608E-02  0.1235056E+00
         21   -1    0    0  503  502  0.00000000000E+00  0.00000000000E+00  0.72705109594E+02  0.72705109594E+02  0.00000000000E+00 0. -1.
         21   -1    0    0  502  503 -0.00000000000E+00 -0.00000000000E+00 -0.53734680623E+02  0.53734680623E+02  0.00000000000E+00 0. -1.
         25    2    1    2    0    0  0.17763568394E-14  0.17763568394E-14  0.18970428971E+02  0.12643979022E+03  0.12500857320E+03 0.  0.
    9000006    2    3    3    0    0 -0.14359189439E+02  0.89361898934E+01  0.48800753012E+01  0.62528880204E+02  0.60000032612E+02 0.  0.
    9000007    2    3    3    0    0  0.14359189439E+02 -0.89361898934E+01  0.14090353670E+02  0.63910910013E+02  0.60000204508E+02 0.  0.
          5    1    4    4  501    0  0.15212073688E+02 -0.11720154332E+01  0.21534174111E+02  0.26806556301E+02  0.47000000000E+01 0.  1.
         -5    1    4    4    0  501 -0.29571263127E+02  0.10108205327E+02 -0.16654098810E+02  0.35722323903E+02  0.47000000000E+01 0.  1.
         12    1    5    5    0    0  0.28759550495E+02 -0.23207470735E+02 -0.34315346349E+01  0.37114335135E+02  0.00000000000E+00 0.  1.
        -12    1    5    5    0    0 -0.14400361056E+02  0.14271280842E+02  0.17521888305E+02  0.26796574878E+02  0.00000000000E+00 0.  1.
<mgrwt>
<rscale>  0 0.12500857E+03</rscale>
<asrwt>0</asrwt>
<pdfrwt beam="1">  1       21 0.11185401E-01 0.12500857E+03</pdfrwt>
<pdfrwt beam="2">  1       21 0.82668739E-02 0.12500857E+03</pdfrwt>
<totfact> 0.73829462E+06</totfact>
</mgrwt>
</event>
<event>
 9    1  0.4541185E-002  0.1250014E+03  0.7818608E-02  0.1235067E+00
         21   -1    0    0  503  502  0.00000000000E+00  0.00000000000E+00  0.19580433193E+03  0.19580433193E+03  0.00000000000E+00 0.  1.
         21   -1    0    0  502  503 -0.00000000000E+00 -0.00000000000E+00 -0.19950206777E+02  0.19950206777E+02  0.00000000000E+00 0.  1.
         25    2    1    2    0    0  0.17763568394E-14 -0.17763568394E-14  0.17585412516E+03  0.21575453871E+03  0.12500139055E+03 0.  0.
    9000006    2    3    3    0    0 -0.28355902219E+01 -0.11023911147E+02  0.64977808083E+02  0.89174325879E+02  0.60003147117E+02 0.  0.
    9000007    2    3    3    0    0  0.28355902219E+01  0.11023911147E+02  0.11087631707E+03  0.12658021283E+03  0.59995211504E+02 0.  0.
          5    1    4    4  501    0 -0.24504679018E+02 -0.12371941333E+02  0.95189515980E+01  0.29432034684E+02  0.47000000000E+01 0. -1.
         -5    1    4    4    0  501  0.21669088796E+02  0.13480301864E+01  0.55458856485E+02  0.59742291195E+02  0.47000000000E+01 0. -1.
         12    1    5    5    0    0  0.14426839345E+02 -0.28996962525E+01  0.49676653494E+00  0.14723746426E+02  0.00000000000E+00 0.  1.
        -12    1    5    5    0    0 -0.11591249123E+02  0.13923607399E+02  0.11037955054E+03  0.11185646640E+03  0.00000000000E+00 0.  1.
<mgrwt>
<rscale>  0 0.12500139E+03</rscale>
<asrwt>0</asrwt>
<pdfrwt beam="1">  1       21 0.30123742E-01 0.12500139E+03</pdfrwt>
<pdfrwt beam="2">  1       21 0.30692627E-02 0.12500139E+03</pdfrwt>
<totfact> 0.63256909E+06</totfact>
</mgrwt>
</event>
<event>
 9    1  0.4541185E-002  0.1249886E+03  0.7818608E-02  0.1235087E+00
         21   -1    0    0  503  502  0.00000000000E+00  0.00000000000E+00  0.13191857028E+03  0.13191857028E+03  0.00000000000E+00 0.  1.
         21   -1    0    0  502  503 -0.00000000000E+00 -0.00000000000E+00 -0.29605690276E+02  0.29605690276E+02  0.00000000000E+00 0.  1.
         25    2    1    2    0    0  0.00000000000E+00  0.88817841970E-15  0.10231288001E+03  0.16152426056E+03  0.12498864482E+03 0.  0.
    9000006    2    3    3    0    0 -0.52022931889E+01  0.34313671682E+00  0.29596836102E+02  0.67105748313E+02  0.60000226268E+02 0.  0.
    9000007    2    3    3    0    0  0.52022931889E+01 -0.34313671682E+00  0.72716043906E+02  0.94418512247E+02  0.60000423468E+02 0.  0.
          5    1    4    4  501    0 -0.27553557632E+02  0.15945690525E+02  0.12121269826E+02  0.34387188990E+02  0.47000000000E+01 0.  1.
         -5    1    4    4    0  501  0.22351264443E+02 -0.15602553808E+02  0.17475566276E+02  0.32718559323E+02  0.47000000000E+01 0.  1.
         12    1    5    5    0    0  0.30827134030E+02 -0.52377015534E+01  0.24991579971E+02  0.40029049196E+02  0.00000000000E+00 0.  1.
        -12    1    5    5    0    0 -0.25624840841E+02  0.48945648366E+01  0.47724463935E+02  0.54389463051E+02  0.00000000000E+00 0.  1.
<mgrwt>
<rscale>  0 0.12498864E+03</rscale>
<asrwt>0</asrwt>
<pdfrwt beam="1">  1       21 0.20295164E-01 0.12498864E+03</pdfrwt>
<pdfrwt beam="2">  1       21 0.45547217E-02 0.12498864E+03</pdfrwt>
<totfact> 0.69353743E+06</totfact>
</mgrwt>
</event>
<event>
 9    1  0.4541185E-002  0.1249982E+03  0.7818608E-02  0.1235072E+00
         21   -1    0    0  503  502  0.00000000000E+00  0.00000000000E+00  0.17889187966E+03  0.17889187966E+03  0.00000000000E+00 0. -1.
         21   -1    0    0  502  503 -0.00000000000E+00 -0.00000000000E+00 -0.21835189411E+02  0.21835189411E+02  0.00000000000E+00 0. -1.
         25    2    1    2    0    0  0.17763568394E-14  0.17763568394E-14  0.15705669025E+03  0.20072706907E+03  0.12499820921E+03 0.  0.
    9000006    2    3    3    0    0  0.14245112881E+02  0.85288321089E+01  0.69664385292E+02  0.93427861673E+02  0.59999787837E+02 0.  0.
    9000007    2    3    3    0    0 -0.14245112881E+02 -0.85288321089E+01  0.87392304958E+02  0.10729920740E+03  0.60000339370E+02 0.  0.
          5    1    4    4  501    0  0.94005839585E+01  0.19968819538E+02  0.58421690838E-01  0.22565862394E+02  0.47000000000E+01 0.  1.
         -5    1    4    4    0  501  0.48445289223E+01 -0.11439987429E+02  0.69605963601E+02  0.70861999278E+02  0.47000000000E+01 0.  1.
         12    1    5    5    0    0 -0.26147607940E+02 -0.50120433541E+00  0.90830904488E+01  0.27684853962E+02  0.00000000000E+00 0.  1.
        -12    1    5    5    0    0  0.11902495059E+02 -0.80276277735E+01  0.78309214509E+02  0.79614353438E+02  0.00000000000E+00 0.  1.
<mgrwt>
<rscale>  0 0.12499821E+03</rscale>
<asrwt>0</asrwt>
<pdfrwt beam="1">  1       21 0.27521827E-01 0.12499821E+03</pdfrwt>
<pdfrwt beam="2">  1       21 0.33592600E-02 0.12499821E+03</pdfrwt>
<totfact> 0.64851495E+06</totfact>
</mgrwt>
</event>
<event>
 9    1  0.4541185E-002  0.1249990E+03  0.7818608E-02  0.1235071E+00
         21   -1    0    0  503  502  0.00000000000E+00  0.00000000000E+00  0.73954958532E+01  0.73954958532E+01  0.00000000000E+00 0.  1.
         21   -1    0    0  502  503 -0.00000000000E+00 -0.00000000000E+00 -0.52818478689E+03  0.52818478689E+03  0.00000000000E+00 0.  1.
         25    2    1    2    0    0  0.88817841970E-15  0.35527136788E-14 -0.52078929103E+03  0.53558028274E+03  0.12499901441E+03 0.  0.
    9000006    2    3    3    0    0  0.56292362052E+01  0.15075290360E+02 -0.28992796311E+03  0.29650744301E+03  0.59995727235E+02 0.  0.
    9000007    2    3    3    0    0 -0.56292362052E+01 -0.15075290360E+02 -0.23086132792E+03  0.23907283973E+03  0.59999310722E+02 0.  0.
          5    1    4    4  501    0 -0.18465673829E+02 -0.76658600506E+01 -0.47083552327E+02  0.51368253036E+02  0.47000000000E+01 0. -1.
         -5    1    4    4    0  501  0.24094910034E+02  0.22741150410E+02 -0.24284441078E+03  0.24513918997E+03  0.47000000000E+01 0. -1.
         12    1    5    5    0    0  0.45348059408E+01  0.22531993956E+02 -0.94609119957E+02  0.97360879184E+02  0.00000000000E+00 0.  1.
        -12    1    5    5    0    0 -0.10164042146E+02 -0.37607284316E+02 -0.13625220796E+03  0.14171196055E+03  0.00000000000E+00 0.  1.
<mgrwt>
<rscale>  0 0.12499901E+03</rscale>
<asrwt>0</asrwt>
<pdfrwt beam="1">  1       21 0.11377685E-02 0.12499901E+03</pdfrwt>
<pdfrwt beam="2">  1       21 0.81259207E-01 0.12499901E+03</pdfrwt>
<totfact> 0.40178935E+06</totfact>
</mgrwt>
</event>
<event>
 9    1  0.4541185E-002  0.1250044E+03  0.7818608E-02  0.1235062E+00
         21   -1    0    0  503  502  0.00000000000E+00  0.00000000000E+00  0.92307915529E+02  0.92307915529E+02  0.00000000000E+00 0.  1.
         21   -1    0    0  502  503 -0.00000000000E+00 -0.00000000000E+00 -0.42320553642E+02  0.42320553642E+02  0.00000000000E+00 0.  1.
         25    2    1    2    0    0  0.88817841970E-15  0.00000000000E+00  0.49987361886E+02  0.13462846917E+03  0.12500435338E+03 0.  0.
    9000006    2    3    3    0    0  0.41557965668E+01 -0.16969112902E+02  0.23743216119E+02  0.66849970249E+02  0.59999639773E+02 0.  0.
    9000007    2    3    3    0    0 -0.41557965668E+01  0.16969112902E+02  0.26244145768E+02  0.67778498922E+02  0.59999569092E+02 0.  0.
          5    1    4    4  501    0  0.96009226622E+01 -0.37215679679E+02  0.64179701744E+01  0.39248756300E+02  0.47000000000E+01 0.  1.
         -5    1    4    4    0  501 -0.54451260954E+01  0.20246566777E+02  0.17325245944E+02  0.27601213949E+02  0.47000000000E+01 0.  1.
         12    1    5    5    0    0 -0.24371858010E+02  0.26555630459E+02  0.27548871554E+02  0.45366609922E+02  0.00000000000E+00 0. -1.
        -12    1    5    5    0    0  0.20216061443E+02 -0.95865175573E+01 -0.13047257864E+01  0.22411889000E+02  0.00000000000E+00 0. -1.
<mgrwt>
<rscale>  0 0.12500435E+03</rscale>
<asrwt>0</asrwt>
<pdfrwt beam="1">  1       21 0.14201218E-01 0.12500435E+03</pdfrwt>
<pdfrwt beam="2">  1       21 0.65108544E-02 0.12500435E+03</pdfrwt>
<totfact> 0.72737625E+06</totfact>
</mgrwt>
</event>
<event>
 9    1  0.4541185E-002  0.1250011E+03  0.7818608E-02  0.1235068E+00
         21   -1    0    0  503  502  0.00000000000E+00  0.00000000000E+00  0.11686488601E+02  0.11686488601E+02  0.00000000000E+00 0.  1.
         21   -1    0    0  502  503 -0.00000000000E+00 -0.00000000000E+00 -0.33425920620E+03  0.33425920620E+03  0.00000000000E+00 0.  1.
         25    2    1    2    0    0  0.00000000000E+00  0.00000000000E+00 -0.32257271760E+03  0.34594569480E+03  0.12500106244E+03 0.  0.
    9000006    2    3    3    0    0 -0.15888776450E+02  0.68435947610E+01 -0.16856747264E+03  0.17976266476E+03  0.60002789954E+02 0.  0.
    9000007    2    3    3    0    0  0.15888776450E+02 -0.68435947610E+01 -0.15400524496E+03  0.16618303004E+03  0.59999133268E+02 0.  0.
          5    1    4    4  501    0 -0.34221484985E+01 -0.23329316147E+02 -0.37013061764E+02  0.44136434307E+02  0.47000000000E+01 0.  1.
         -5    1    4    4    0  501 -0.12466627952E+02  0.30172910908E+02 -0.13155441088E+03  0.13562623045E+03  0.47000000000E+01 0.  1.
         12    1    5    5    0    0  0.19817914252E+02 -0.29431085788E+02 -0.12026949272E+03  0.12539413628E+03  0.00000000000E+00 0.  1.
        -12    1    5    5    0    0 -0.39291378015E+01  0.22587491027E+02 -0.33735752242E+02  0.40788893759E+02  0.00000000000E+00 0.  1.
<mgrwt>
<rscale>  0 0.12500106E+03</rscale>
<asrwt>0</asrwt>
<pdfrwt beam="1">  1       21 0.17979213E-02 0.12500106E+03</pdfrwt>
<pdfrwt beam="2">  1       21 0.51424495E-01 0.12500106E+03</pdfrwt>
<totfact> 0.51837873E+06</totfact>
</mgrwt>
</event>
<event>
 9    1  0.4541185E-002  0.1249656E+03  0.7818608E-02  0.1235123E+00
         21   -1    0    0  503  502  0.00000000000E+00  0.00000000000E+00  0.26221101480E+03  0.26221101480E+03  0.00000000000E+00 0. -1.
         21   -1    0    0  502  503 -0.00000000000E+00 -0.00000000000E+00 -0.14889160891E+02  0.14889160891E+02  0.00000000000E+00 0. -1.
         25    2    1    2    0    0  0.17763568394E-14  0.00000000000E+00  0.24732185391E+03  0.27710017570E+03  0.12496562706E+03 0.  0.
    9000006    2    3    3    0    0 -0.49779331531E+01 -0.16711381230E+02  0.12450199690E+03  0.13930116586E+03  0.60000145819E+02 0.  0.
    9000007    2    3    3    0    0  0.49779331531E+01  0.16711381230E+02  0.12281985702E+03  0.13779900983E+03  0.59998331245E+02 0.  0.
          5    1    4    4  501    0 -0.86759803407E+01 -0.13612355260E+02  0.12970491831E+03  0.13079000224E+03  0.47000000000E+01 0. -1.
         -5    1    4    4    0  501  0.36980471876E+01 -0.30990259700E+01 -0.52029214175E+01  0.85111636244E+01  0.47000000000E+01 0. -1.
         12    1    5    5    0    0 -0.15149977015E+02 -0.11680264932E+02  0.81787855932E+02  0.83995260405E+02  0.00000000000E+00 0.  1.
        -12    1    5    5    0    0  0.20127910169E+02  0.28391646162E+02  0.41032001086E+02  0.53803749429E+02  0.00000000000E+00 0.  1.
<mgrwt>
<rscale>  0 0.12496563E+03</rscale>
<asrwt>0</asrwt>
<pdfrwt beam="1">  1       21 0.40340153E-01 0.12496563E+03</pdfrwt>
<pdfrwt beam="2">  1       21 0.22906403E-02 0.12496563E+03</pdfrwt>
<totfact> 0.57464284E+06</totfact>
</mgrwt>
</event>
<event>
 9    1  0.4541185E-002  0.1250253E+03  0.7818608E-02  0.1235030E+00
         21   -1    0    0  503  502  0.00000000000E+00  0.00000000000E+00  0.61969469275E+02  0.61969469275E+02  0.00000000000E+00 0. -1.
         21   -1    0    0  502  503 -0.00000000000E+00 -0.00000000000E+00 -0.63060551785E+02  0.63060551785E+02  0.00000000000E+00 0. -1.
         25    2    1    2    0    0 -0.17763568394E-14  0.35527136788E-14 -0.10910825105E+01  0.12503002106E+03  0.12502526027E+03 0.  0.
    9000006    2    3    3    0    0  0.13995204990E+02 -0.95582695359E+01  0.39845368032E+01  0.62476382556E+02  0.60001629682E+02 0.  0.
    9000007    2    3    3    0    0 -0.13995204990E+02  0.95582695359E+01 -0.50756193138E+01  0.62553638504E+02  0.59999745828E+02 0.  0.
          5    1    4    4  501    0 -0.80698907167E+01 -0.25207064712E+02  0.17294432571E+02  0.31964146250E+02  0.47000000000E+01 0. -1.
         -5    1    4    4    0  501  0.22065095707E+02  0.15648795176E+02 -0.13309895768E+02  0.30512236306E+02  0.47000000000E+01 0. -1.
         12    1    5    5    0    0  0.11739617500E+02  0.28164250219E+02 -0.92299700085E+00  0.30526964030E+02  0.00000000000E+00 0. -1.
        -12    1    5    5    0    0 -0.25734822490E+02 -0.18605980683E+02 -0.41526223129E+01  0.32026674474E+02  0.00000000000E+00 0. -1.
<mgrwt>
<rscale>  0 0.12502526E+03</rscale>
<asrwt>0</asrwt>
<pdfrwt beam="1">  1       21 0.95337644E-02 0.12502526E+03</pdfrwt>
<pdfrwt beam="2">  1       21 0.97016234E-02 0.12502526E+03</pdfrwt>
<totfact> 0.73991730E+06</totfact>
</mgrwt>
</event>
<event>
 9    1  0.4541185E-002  0.1249999E+03  0.7818608E-02  0.1235069E+00
         21   -1    0    0  503  502  0.00000000000E+00  0.00000000000E+00  0.44449948094E+02  0.44449948094E+02  0.00000000000E+00 0. -1.
         21   -1    0    0  502  503 -0.00000000000E+00 -0.00000000000E+00 -0.87879574121E+02  0.87879574121E+02  0.00000000000E+00 0. -1.
         25    2    1    2    0    0  0.00000000000E+00  0.00000000000E+00 -0.43429626027E+02  0.13232952222E+03  0.12499988013E+03 0.  0.
    9000006    2    3    3    0    0  0.17162779555E+02 -0.25418943169E+01 -0.19297194402E+02  0.65371936245E+02  0.60000717561E+02 0.  0.
    9000007    2    3    3    0    0 -0.17162779555E+02  0.25418943169E+01 -0.24132431625E+02  0.66957585971E+02  0.59999348615E+02 0.  0.
          5    1    4    4  501    0  0.23159828424E+02 -0.21947830125E+02  0.57745461364E+01  0.32764619377E+02  0.47000000000E+01 0.  1.
         -5    1    4    4    0  501 -0.59970488698E+01  0.19405935808E+02 -0.25071740538E+02  0.32607316868E+02  0.47000000000E+01 0.  1.
         12    1    5    5    0    0  0.20888668160E+02  0.59912477556E+01 -0.18090409410E+02  0.28275332355E+02  0.00000000000E+00 0. -1.
        -12    1    5    5    0    0 -0.38051447715E+02 -0.34493534387E+01 -0.60420222150E+01  0.38682253616E+02  0.00000000000E+00 0. -1.
<mgrwt>
<rscale>  0 0.12499988E+03</rscale>
<asrwt>0</asrwt>
<pdfrwt beam="1">  1       21 0.68384536E-02 0.12499988E+03</pdfrwt>
<pdfrwt beam="2">  1       21 0.13519934E-01 0.12499988E+03</pdfrwt>
<totfact> 0.73052286E+06</totfact>
</mgrwt>
</event>
<event>
 8    1  0.4541185E-002  0.1249359E+03  0.7818608E-02  0.1235170E+00
         21   -1    0    0  503  502  0.00000000000E+00  0.00000000000E+00  0.23742396766E+02  0.23742396766E+02  0.00000000000E+00 0.  1.
         21   -1    0    0  502  503 -0.00000000000E+00 -0.00000000000E+00 -0.16435764330E+03  0.16435764330E+03  0.00000000000E+00 0.  1.
    9000006    2    1    2    0    0 -0.23404368820E+01 -0.61884231113E+01 -0.46105624260E+02  0.75957145549E+02  0.59999876218E+02 0.  0.
    9000007    2    1    2    0    0  0.23404368820E+01  0.61884231113E+01 -0.94509622270E+02  0.11214289451E+03  0.60001548836E+02 0.  0.
          5    1    3    3  501    0  0.22954727058E+02 -0.84766675829E+01 -0.21959124461E+01  0.25013704626E+02  0.47000000000E+01 0. -1.
         -5    1    3    3    0  501 -0.25295163940E+02  0.22882444716E+01 -0.43909711814E+02  0.50943440923E+02  0.47000000000E+01 0. -1.
         12    1    4    4    0    0 -0.45976280405E+01 -0.32592810127E+01  0.75449398398E+01  0.94173888900E+01  0.00000000000E+00 0. -1.
        -12    1    4    4    0    0  0.69380649226E+01  0.94477041240E+01 -0.10205456211E+03  0.10272550562E+03  0.00000000000E+00 0. -1.
<mgrwt>
<rscale>  0 0.12493589E+03</rscale>
<asrwt>0</asrwt>
<pdfrwt beam="1">  1       21 0.36526765E-02 0.12493589E+03</pdfrwt>
<pdfrwt beam="2">  1       21 0.25285791E-01 0.12493589E+03</pdfrwt>
<totfact> 0.66341981E+06</totfact>
</mgrwt>
</event>
<event>
 9    1  0.4541185E-002  0.1249874E+03  0.7818608E-02  0.1235089E+00
         21   -1    0    0  503  502  0.00000000000E+00  0.00000000000E+00  0.70372753775E+02  0.70372753775E+02  0.00000000000E+00 0.  1.
         21   -1    0    0  502  503 -0.00000000000E+00 -0.00000000000E+00 -0.55496833126E+02  0.55496833126E+02  0.00000000000E+00 0.  1.
         25    2    1    2    0    0  0.00000000000E+00 -0.35527136788E-14  0.14875920649E+02  0.12586958690E+03  0.12498743893E+03 0.  0.
    9000006    2    3    3    0    0  0.76192397143E+01  0.14209641826E+02  0.64913559809E+00  0.62132959743E+02  0.60000971448E+02 0.  0.
    9000007    2    3    3    0    0 -0.76192397143E+01 -0.14209641826E+02  0.14226785051E+02  0.63736627158E+02  0.59999912449E+02 0.  0.
          5    1    4    4  501    0 -0.87043186385E+01  0.54415727622E+01  0.27180576948E+02  0.29432119195E+02  0.47000000000E+01 0.  1.
         -5    1    4    4    0  501  0.16323558353E+02  0.87680690640E+01 -0.26531441350E+02  0.32700840548E+02  0.47000000000E+01 0.  1.
         12    1    5    5    0    0 -0.32429513437E+02 -0.89070140399E+01 -0.18835442185E+01  0.33683170571E+02  0.00000000000E+00 0.  1.
        -12    1    5    5    0    0  0.24810273723E+02 -0.53026277864E+01  0.16110329269E+02  0.30053456587E+02  0.00000000000E+00 0.  1.
<mgrwt>
<rscale>  0 0.12498744E+03</rscale>
<asrwt>0</asrwt>
<pdfrwt beam="1">  1       21 0.10826577E-01 0.12498744E+03</pdfrwt>
<pdfrwt beam="2">  1       21 0.85379743E-02 0.12498744E+03</pdfrwt>
<totfact> 0.73947735E+06</totfact>
</mgrwt>
</event>
<event>
 9    1  0.4541185E-002  0.1249929E+03  0.7818608E-02  0.1235080E+00
         21   -1    0    0  503  502  0.00000000000E+00  0.00000000000E+00  0.63899974709E+01  0.63899974709E+01  0.00000000000E+00 0. -1.
         21   -1    0    0  502  503 -0.00000000000E+00 -0.00000000000E+00 -0.61123751541E+03  0.61123751541E+03  0.00000000000E+00 0. -1.
         25    2    1    2    0    0  0.00000000000E+00 -0.88817841970E-15 -0.60484751794E+03  0.61762751288E+03  0.12499289864E+03 0.  0.
    9000006    2    3    3    0    0 -0.19287064175E+01  0.46886607786E+01 -0.38508460196E+03  0.38976394066E+03  0.60000627672E+02 0.  0.
    9000007    2    3    3    0    0  0.19287064175E+01 -0.46886607786E+01 -0.21976291597E+03  0.22786357222E+03  0.60003040413E+02 0.  0.
          5    1    4    4  501    0 -0.51992542528E+01  0.15006645151E+01 -0.38273463900E+03  0.38280174781E+03  0.47000000000E+01 0.  1.
         -5    1    4    4    0  501  0.32705478354E+01  0.31879962635E+01 -0.23499629658E+01  0.69621928485E+01  0.47000000000E+01 0.  1.
         12    1    5    5    0    0 -0.26887660337E+02 -0.12873802310E+02 -0.12351723213E+03  0.12706371511E+03  0.00000000000E+00 0. -1.
        -12    1    5    5    0    0  0.28816366755E+02  0.81851415311E+01 -0.96245683848E+02  0.10079985711E+03  0.00000000000E+00 0. -1.
<mgrwt>
<rscale>  0 0.12499290E+03</rscale>
<asrwt>0</asrwt>
<pdfrwt beam="1">  1       21 0.98307642E-03 0.12499290E+03</pdfrwt>
<pdfrwt beam="2">  1       21 0.94036552E-01 0.12499290E+03</pdfrwt>
<totfact> 0.36313791E+06</totfact>
</mgrwt>
</event>
<event>
 9    1  0.4541185E-002  0.1250008E+03  0.7818608E-02  0.1235068E+00
         21   -1    0    0  503  502  0.00000000000E+00  0.00000000000E+00  0.65045697122E+02  0.65045697122E+02  0.00000000000E+00 0. -1.
         21   -1    0    0  502  503 -0.00000000000E+00 -0.00000000000E+00 -0.60054726633E+02  0.60054726633E+02  0.00000000000E+00 0. -1.
         25    2    1    2    0    0  0.17763568394E-14 -0.17763568394E-14  0.49909704897E+01  0.12510042375E+03  0.12500082495E+03 0.  0.
    9000006    2    3    3    0    0 -0.13898710918E+02 -0.81714633979E+01  0.93087608079E+01  0.62822298093E+02  0.60000342755E+02 0.  0.
    9000007    2    3    3    0    0  0.13898710918E+02  0.81714633979E+01 -0.43177903182E+01  0.62278125662E+02  0.59999788695E+02 0.  0.
          5    1    4    4  501    0 -0.27717744684E+02  0.96121280439E+01 -0.11443627753E+02  0.31838859779E+02  0.47000000000E+01 0. -1.
         -5    1    4    4    0  501  0.13819033766E+02 -0.17783591442E+02  0.20752388561E+02  0.30983438314E+02  0.47000000000E+01 0. -1.
         12    1    5    5    0    0  0.18744377538E+02  0.11424008751E+02 -0.29307050651E+02  0.36616429142E+02  0.00000000000E+00 0.  1.
        -12    1    5    5    0    0 -0.48456666199E+01 -0.32525453534E+01  0.24989260333E+02  0.25661696519E+02  0.00000000000E+00 0.  1.
<mgrwt>
<rscale>  0 0.12500082E+03</rscale>
<asrwt>0</asrwt>
<pdfrwt beam="1">  1       21 0.10007030E-01 0.12500082E+03</pdfrwt>
<pdfrwt beam="2">  1       21 0.92391887E-02 0.12500082E+03</pdfrwt>
<totfact> 0.74028457E+06</totfact>
</mgrwt>
</event>
<event>
 9    1  0.4541185E-002  0.1250035E+03  0.7818608E-02  0.1235064E+00
         21   -1    0    0  503  502  0.00000000000E+00  0.00000000000E+00  0.94997516525E+02  0.94997516525E+02  0.00000000000E+00 0. -1.
         21   -1    0    0  502  503 -0.00000000000E+00 -0.00000000000E+00 -0.41121776473E+02  0.41121776473E+02  0.00000000000E+00 0. -1.
         25    2    1    2    0    0  0.00000000000E+00 -0.35527136788E-14  0.53875740052E+02  0.13611929300E+03  0.12500346619E+03 0.  0.
    9000006    2    3    3    0    0  0.89767912468E+01 -0.26894889996E+01  0.43040086454E+02  0.74433183646E+02  0.60000280446E+02 0.  0.
    9000007    2    3    3    0    0 -0.89767912468E+01  0.26894889996E+01  0.10835653598E+02  0.61686109353E+02  0.59999571382E+02 0.  0.
          5    1    4    4  501    0  0.16751845356E+02 -0.27916042737E+02  0.30400164966E+02  0.44790510098E+02  0.47000000000E+01 0.  1.
         -5    1    4    4    0  501 -0.77750541088E+01  0.25226553737E+02  0.12639921487E+02  0.29642673548E+02  0.47000000000E+01 0.  1.
         12    1    5    5    0    0 -0.31240385984E+01 -0.17021824903E+02  0.29313922581E+02  0.34041271969E+02  0.00000000000E+00 0.  1.
        -12    1    5    5    0    0 -0.58527526484E+01  0.19711313903E+02 -0.18478268983E+02  0.27644837383E+02  0.00000000000E+00 0.  1.
<mgrwt>
<rscale>  0 0.12500347E+03</rscale>
<asrwt>0</asrwt>
<pdfrwt beam="1">  1       21 0.14615002E-01 0.12500347E+03</pdfrwt>
<pdfrwt beam="2">  1       21 0.63264272E-02 0.12500347E+03</pdfrwt>
<totfact> 0.72542195E+06</totfact>
</mgrwt>
</event>
<event>
 9    1  0.4541185E-002  0.1250094E+03  0.7818608E-02  0.1235055E+00
         21   -1    0    0  503  502  0.00000000000E+00  0.00000000000E+00  0.48831689914E+03  0.48831689914E+03  0.00000000000E+00 0. -1.
         21   -1    0    0  502  503 -0.00000000000E+00 -0.00000000000E+00 -0.80006212802E+01  0.80006212802E+01  0.00000000000E+00 0. -1.
         25    2    1    2    0    0  0.35527136788E-14  0.00000000000E+00  0.48031627786E+03  0.49631752042E+03  0.12500941684E+03 0.  0.
    9000006    2    3    3    0    0 -0.17390880341E+02 -0.20351541494E+01  0.24226369406E+03  0.25019628163E+03  0.59999144243E+02 0.  0.
    9000007    2    3    3    0    0  0.17390880341E+02  0.20351541494E+01  0.23805258381E+03  0.24612123880E+03  0.60000391324E+02 0.  0.
          5    1    4    4  501    0 -0.32585836099E+02 -0.19937231232E+02  0.15485812745E+03  0.15956960719E+03  0.47000000000E+01 0.  1.
         -5    1    4    4    0  501  0.15194955757E+02  0.17902077082E+02  0.87405566614E+02  0.90626674436E+02  0.47000000000E+01 0.  1.
         12    1    5    5    0    0 -0.95563300933E-01 -0.24403680575E+02  0.16043539847E+03  0.16228082401E+03  0.00000000000E+00 0. -1.
        -12    1    5    5    0    0  0.17486443642E+02  0.26438834725E+02  0.77617185337E+02  0.83840414792E+02  0.00000000000E+00 0. -1.
<mgrwt>
<rscale>  0 0.12500942E+03</rscale>
<asrwt>0</asrwt>
<pdfrwt beam="1">  1       21 0.75125653E-01 0.12500942E+03</pdfrwt>
<pdfrwt beam="2">  1       21 0.12308652E-02 0.12500942E+03</pdfrwt>
<totfact> 0.42234589E+06</totfact>
</mgrwt>
</event>
<event>
 9    1  0.4541185E-002  0.1250012E+03  0.7818608E-02  0.1235067E+00
         21   -1    0    0  503  502  0.00000000000E+00  0.00000000000E+00  0.26830190665E+02  0.26830190665E+02  0.00000000000E+00 0. -1.
         21   -1    0    0  502  503 -0.00000000000E+00 -0.00000000000E+00 -0.14559436993E+03  0.14559436993E+03  0.00000000000E+00 0. -1.
         25    2    1    2    0    0  0.17763568394E-14  0.17763568394E-14 -0.11876417926E+03  0.17242456059E+03  0.12500119527E+03 0.  0.
    9000006    2    3    3    0    0  0.14849346341E+02 -0.90487717145E+01 -0.56604643394E+02  0.84299978125E+02  0.60000144182E+02 0.  0.
    9000007    2    3    3    0    0 -0.14849346341E+02  0.90487717145E+01 -0.62159535869E+02  0.88124582467E+02  0.59997923125E+02 0.  0.
          5    1    4    4  501    0 -0.13504207623E+02 -0.25298821965E+02 -0.21810920295E+02  0.36334560138E+02  0.47000000000E+01 0.  1.
         -5    1    4    4    0  501  0.28353553964E+02  0.16250050251E+02 -0.34793723099E+02  0.47965417987E+02  0.47000000000E+01 0.  1.
         12    1    5    5    0    0 -0.30926054957E+02  0.75246982682E+01 -0.97570762662E+01  0.33290276306E+02  0.00000000000E+00 0.  1.
        -12    1    5    5    0    0  0.16076708616E+02  0.15240734462E+01 -0.52402459602E+02  0.54834306161E+02  0.00000000000E+00 0.  1.
<mgrwt>
<rscale>  0 0.12500120E+03</rscale>
<asrwt>0</asrwt>
<pdfrwt beam="1">  1       21 0.41277216E-02 0.12500120E+03</pdfrwt>
<pdfrwt beam="2">  1       21 0.22399134E-01 0.12500120E+03</pdfrwt>
<totfact> 0.68029310E+06</totfact>
</mgrwt>
</event>
<event>
 9    1  0.4541185E-002  0.1250000E+03  0.7818608E-02  0.1235069E+00
         21   -1    0    0  503  502  0.00000000000E+00  0.00000000000E+00  0.65995216861E+01  0.65995216861E+01  0.00000000000E+00 0. -1.
         21   -1    0    0  502  503 -0.00000000000E+00 -0.00000000000E+00 -0.59189854205E+03  0.59189854205E+03  0.00000000000E+00 0. -1.
         25    2    1    2    0    0  0.00000000000E+00  0.00000000000E+00 -0.58529902036E+03  0.59849806374E+03  0.12499995623E+03 0.  0.
    9000006    2    3    3    0    0  0.72412368479E+01 -0.15919967553E+02 -0.29537930062E+03  0.30191858803E+03  0.60000180691E+02 0.  0.
    9000007    2    3    3    0    0 -0.72412368479E+01  0.15919967553E+02 -0.28991971974E+03  0.29657947571E+03  0.60000505315E+02 0.  0.
          5    1    4    4  501    0  0.26143317301E+02 -0.75365500394E+00 -0.23767233124E+03  0.23915323137E+03  0.47000000000E+01 0.  1.
         -5    1    4    4    0  501 -0.18902080453E+02 -0.15166312549E+02 -0.57706969382E+02  0.62765356663E+02  0.47000000000E+01 0.  1.
         12    1    5    5    0    0  0.93555730092E+01  0.31164370340E+02 -0.96210116579E+02  0.10156343465E+03  0.00000000000E+00 0. -1.
        -12    1    5    5    0    0 -0.16596809857E+02 -0.15244402788E+02 -0.19370960316E+03  0.19501604106E+03  0.00000000000E+00 0. -1.
<mgrwt>
<rscale>  0 0.12499996E+03</rscale>
<asrwt>0</asrwt>
<pdfrwt beam="1">  1       21 0.10153112E-02 0.12499996E+03</pdfrwt>
<pdfrwt beam="2">  1       21 0.91061294E-01 0.12499996E+03</pdfrwt>
<totfact> 0.37160688E+06</totfact>
</mgrwt>
</event>
<event>
 9    1  0.4541185E-002  0.1250085E+03  0.7818608E-02  0.1235056E+00
         21   -1    0    0  503  502  0.00000000000E+00  0.00000000000E+00  0.47405011790E+03  0.47405011790E+03  0.00000000000E+00 0. -1.
         21   -1    0    0  502  503 -0.00000000000E+00 -0.00000000000E+00 -0.82412791203E+01  0.82412791203E+01  0.00000000000E+00 0. -1.
         25    2    1    2    0    0 -0.17763568394E-14  0.17763568394E-14  0.46580883878E+03  0.48229139702E+03  0.12500846913E+03 0.  0.
    9000006    2    3    3    0    0  0.77949980013E+01 -0.87062790729E+01  0.28324367227E+03  0.28976467405E+03  0.60000226287E+02 0.  0.
    9000007    2    3    3    0    0 -0.77949980013E+01  0.87062790729E+01  0.18256516650E+03  0.19252672297E+03  0.59999481228E+02 0.  0.
          5    1    4    4  501    0  0.22877746660E+02 -0.56921307737E+01  0.45345226358E+02  0.51323203314E+02  0.47000000000E+01 0.  1.
         -5    1    4    4    0  501 -0.15082748658E+02 -0.30141482992E+01  0.23789844591E+03  0.23844147073E+03  0.47000000000E+01 0.  1.
         12    1    5    5    0    0 -0.78242255707E+00  0.29468676712E+02  0.49064531450E+02  0.57239351312E+02  0.00000000000E+00 0. -1.
        -12    1    5    5    0    0 -0.70125754442E+01 -0.20762397639E+02  0.13350063505E+03  0.13528737166E+03  0.00000000000E+00 0. -1.
<mgrwt>
<rscale>  0 0.12500847E+03</rscale>
<asrwt>0</asrwt>
<pdfrwt beam="1">  1       21 0.72930766E-01 0.12500847E+03</pdfrwt>
<pdfrwt beam="2">  1       21 0.12678895E-02 0.12500847E+03</pdfrwt>
<totfact> 0.43011954E+06</totfact>
</mgrwt>
</event>
<event>
 9    1  0.4541185E-002  0.1249791E+03  0.7818608E-02  0.1235102E+00
         21   -1    0    0  503  502  0.00000000000E+00  0.00000000000E+00  0.40530708143E+01  0.40530708143E+01  0.00000000000E+00 0.  1.
         21   -1    0    0  502  503 -0.00000000000E+00 -0.00000000000E+00 -0.96345385376E+03  0.96345385376E+03  0.00000000000E+00 0.  1.
         25    2    1    2    0    0 -0.17763568394E-14 -0.17763568394E-14 -0.95940078294E+03  0.96750692457E+03  0.12497914539E+03 0.  0.
    9000006    2    3    3    0    0 -0.26168754698E+01  0.49702539356E+01 -0.35169465587E+03  0.35682023093E+03  0.59999956412E+02 0.  0.
    9000007    2    3    3    0    0  0.26168754698E+01 -0.49702539356E+01 -0.60770612707E+03  0.61068669364E+03  0.59999578763E+02 0.  0.
          5    1    4    4  501    0  0.24073854735E+02  0.12465443684E+02 -0.10564630026E+03  0.10917036469E+03  0.47000000000E+01 0. -1.
         -5    1    4    4    0  501 -0.26690730205E+02 -0.74951897479E+01 -0.24604835561E+03  0.24764986624E+03  0.47000000000E+01 0. -1.
         12    1    5    5    0    0 -0.96599593942E+01  0.65115692479E+01 -0.55972713866E+03  0.55984835902E+03  0.00000000000E+00 0.  1.
        -12    1    5    5    0    0  0.12276834864E+02 -0.11481823183E+02 -0.47978988413E+02  0.50838334621E+02  0.00000000000E+00 0.  1.
<mgrwt>
<rscale>  0 0.12497915E+03</rscale>
<asrwt>0</asrwt>
<pdfrwt beam="1">  1       21 0.62354895E-03 0.12497915E+03</pdfrwt>
<pdfrwt beam="2">  1       21 0.14822377E+00 0.12497915E+03</pdfrwt>
<totfact> 0.24461071E+06</totfact>
</mgrwt>
</event>
<event>
 9    1  0.4541185E-002  0.1249994E+03  0.7818608E-02  0.1235070E+00
         21   -1    0    0  503  502  0.00000000000E+00  0.00000000000E+00  0.47495898598E+01  0.47495898598E+01  0.00000000000E+00 0. -1.
         21   -1    0    0  502  503 -0.00000000000E+00 -0.00000000000E+00 -0.82243126067E+03  0.82243126067E+03  0.00000000000E+00 0. -1.
         25    2    1    2    0    0  0.00000000000E+00  0.00000000000E+00 -0.81768167081E+03  0.82718085053E+03  0.12499937882E+03 0.  0.
    9000006    2    3    3    0    0  0.16901232437E+02  0.13454207074E+01 -0.43753292140E+03  0.44195326633E+03  0.60001420786E+02 0.  0.
    9000007    2    3    3    0    0 -0.16901232437E+02 -0.13454207074E+01 -0.38014874941E+03  0.38522758420E+03  0.59997984427E+02 0.  0.
          5    1    4    4  501    0 -0.13488690533E+02  0.12543220769E+02 -0.58521865373E+02  0.61531909497E+02  0.47000000000E+01 0.  1.
         -5    1    4    4    0  501  0.30389922970E+02 -0.11197800062E+02 -0.37901105602E+03  0.38042135683E+03  0.47000000000E+01 0.  1.
         12    1    5    5    0    0 -0.98097481813E+01 -0.68096240375E+01 -0.37439539844E+03  0.37458579326E+03  0.00000000000E+00 0. -1.
        -12    1    5    5    0    0 -0.70914842558E+01  0.54642033301E+01 -0.57533509662E+01  0.10641790936E+02  0.00000000000E+00 0. -1.
<mgrwt>
<rscale>  0 0.12499938E+03</rscale>
<asrwt>0</asrwt>
<pdfrwt beam="1">  1       21 0.73070614E-03 0.12499938E+03</pdfrwt>
<pdfrwt beam="2">  1       21 0.12652789E+00 0.12499938E+03</pdfrwt>
<totfact> 0.28482275E+06</totfact>
</mgrwt>
</event>
<event>
 9    1  0.4541185E-002  0.1250009E+03  0.7818608E-02  0.1235068E+00
         21   -1    0    0  503  502  0.00000000000E+00  0.00000000000E+00  0.22983241954E+03  0.22983241954E+03  0.00000000000E+00 0.  1.
         21   -1    0    0  502  503 -0.00000000000E+00 -0.00000000000E+00 -0.16996326903E+02  0.16996326903E+02  0.00000000000E+00 0.  1.
         25    2    1    2    0    0  0.35527136788E-14  0.17763568394E-14  0.21283609264E+03  0.24682874644E+03  0.12500091096E+03 0.  0.
    9000006    2    3    3    0    0  0.14140868245E+02 -0.65024535696E+01  0.90614078302E+02  0.10978695439E+03  0.60000150930E+02 0.  0.
    9000007    2    3    3    0    0 -0.14140868245E+02  0.65024535696E+01  0.12222201434E+03  0.13704179205E+03  0.59999882687E+02 0.  0.
          5    1    4    4  501    0 -0.22365342043E+01  0.11303398717E+02 -0.31512235304E+01  0.12837021366E+02  0.47000000000E+01 0. -1.
         -5    1    4    4    0  501  0.16377402449E+02 -0.17805852287E+02  0.93765301832E+02  0.96949933029E+02  0.47000000000E+01 0. -1.
         12    1    5    5    0    0 -0.33705592018E+02  0.18664387065E+02  0.83997503468E+02  0.92412157569E+02  0.00000000000E+00 0.  1.
        -12    1    5    5    0    0  0.19564723773E+02 -0.12161933495E+02  0.38224510867E+02  0.44629634479E+02  0.00000000000E+00 0.  1.
<mgrwt>
<rscale>  0 0.12500091E+03</rscale>
<asrwt>0</asrwt>
<pdfrwt beam="1">  1       21 0.35358832E-01 0.12500091E+03</pdfrwt>
<pdfrwt beam="2">  1       21 0.26148197E-02 0.12500091E+03</pdfrwt>
<totfact> 0.60176668E+06</totfact>
</mgrwt>
</event>
<event>
 9    1  0.4541185E-002  0.1249982E+03  0.7818608E-02  0.1235072E+00
         21   -1    0    0  503  502  0.00000000000E+00  0.00000000000E+00  0.32812381686E+02  0.32812381686E+02  0.00000000000E+00 0. -1.
         21   -1    0    0  502  503 -0.00000000000E+00 -0.00000000000E+00 -0.11904464637E+03  0.11904464637E+03  0.00000000000E+00 0. -1.
         25    2    1    2    0    0  0.00000000000E+00  0.00000000000E+00 -0.86232264686E+02  0.15185702806E+03  0.12499821398E+03 0.  0.
    9000006    2    3    3    0    0  0.16133692532E+02  0.52537200336E+01 -0.48308297386E+02  0.78877727918E+02  0.60000889629E+02 0.  0.
    9000007    2    3    3    0    0 -0.16133692532E+02 -0.52537200336E+01 -0.37923967300E+02  0.72979300140E+02  0.59998777857E+02 0.  0.
          5    1    4    4  501    0 -0.17375814346E+02  0.63046760968E+01  0.96323884533E+00  0.19096745637E+02  0.47000000000E+01 0. -1.
         -5    1    4    4    0  501  0.33509506877E+02 -0.10509560632E+01 -0.49271536231E+02  0.59780982280E+02  0.47000000000E+01 0. -1.
         12    1    5    5    0    0  0.15657122452E+02 -0.10591841605E+01 -0.37783301216E+02  0.40912653365E+02  0.00000000000E+00 0.  1.
        -12    1    5    5    0    0 -0.31790814983E+02 -0.41945358732E+01 -0.14066608404E+00  0.32066646776E+02  0.00000000000E+00 0.  1.
<mgrwt>
<rscale>  0 0.12499821E+03</rscale>
<asrwt>0</asrwt>
<pdfrwt beam="1">  1       21 0.50480587E-02 0.12499821E+03</pdfrwt>
<pdfrwt beam="2">  1       21 0.18314561E-01 0.12499821E+03</pdfrwt>
<totfact> 0.70529903E+06</totfact>
</mgrwt>
</event>
<event>
 9    1  0.4541185E-002  0.1249967E+03  0.7818608E-02  0.1235074E+00
         21   -1    0    0  503  502  0.00000000000E+00  0.00000000000E+00  0.36492759650E+03  0.36492759650E+03  0.00000000000E+00 0. -1.
         21   -1    0    0  502  503 -0.00000000000E+00 -0.00000000000E+00 -0.10703610497E+02  0.10703610497E+02  0.00000000000E+00 0. -1.
         25    2    1    2    0    0 -0.35527136788E-14 -0.35527136788E-14  0.35422398601E+03  0.37563120700E+03  0.12499668560E+03 0.  0.
    9000006    2    3    3    0    0  0.86296465890E+01 -0.15027041205E+02  0.18438840088E+03  0.19467741431E+03  0.59999420794E+02 0.  0.
    9000007    2    3    3    0    0 -0.86296465890E+01  0.15027041205E+02  0.16983558513E+03  0.18095379269E+03  0.59998886210E+02 0.  0.
          5    1    4    4  501    0  0.33779698179E+02 -0.43029483445E+01  0.91935269276E+02  0.98151755514E+02  0.47000000000E+01 0. -1.
         -5    1    4    4    0  501 -0.25150051590E+02 -0.10724092861E+02  0.92453131604E+02  0.96525658796E+02  0.47000000000E+01 0. -1.
         12    1    5    5    0    0 -0.33178816615E+02  0.80867888887E+00  0.76175952157E+02  0.83091898044E+02  0.00000000000E+00 0.  1.
        -12    1    5    5    0    0  0.24549170026E+02  0.14218362316E+02  0.93659632968E+02  0.97861894646E+02  0.00000000000E+00 0.  1.
<mgrwt>
<rscale>  0 0.12499669E+03</rscale>
<asrwt>0</asrwt>
<pdfrwt beam="1">  1       21 0.56142698E-01 0.12499669E+03</pdfrwt>
<pdfrwt beam="2">  1       21 0.16467096E-02 0.12499669E+03</pdfrwt>
<totfact> 0.49703558E+06</totfact>
</mgrwt>
</event>
<event>
 9    1  0.4541185E-002  0.1250022E+03  0.7818608E-02  0.1235066E+00
         21   -1    0    0  503  502  0.00000000000E+00  0.00000000000E+00  0.82166533886E+02  0.82166533886E+02  0.00000000000E+00 0. -1.
         21   -1    0    0  502  503 -0.00000000000E+00 -0.00000000000E+00 -0.47542308631E+02  0.47542308631E+02  0.00000000000E+00 0. -1.
         25    2    1    2    0    0  0.00000000000E+00  0.35527136788E-14  0.34624225255E+02  0.12970884252E+03  0.12500218739E+03 0.  0.
    9000006    2    3    3    0    0  0.16812617412E+02 -0.22646901917E+01  0.12833844992E+02  0.63658843445E+02  0.59999565378E+02 0.  0.
    9000007    2    3    3    0    0 -0.16812617412E+02  0.22646901917E+01  0.21790380263E+02  0.66049999072E+02  0.59999906496E+02 0.  0.
          5    1    4    4  501    0  0.12839528622E+02 -0.29056548116E+02  0.16193565652E+02  0.35964677841E+02  0.47000000000E+01 0.  1.
         -5    1    4    4    0  501  0.39730887895E+01  0.26791857924E+02 -0.33597206604E+01  0.27694165604E+02  0.47000000000E+01 0.  1.
         12    1    5    5    0    0  0.12741118463E+02  0.84679126423E+01 -0.12932897124E+02  0.20032510382E+02  0.00000000000E+00 0.  1.
        -12    1    5    5    0    0 -0.29553735874E+02 -0.62032224506E+01  0.34723277386E+02  0.46017488690E+02  0.00000000000E+00 0.  1.
<mgrwt>
<rscale>  0 0.12500219E+03</rscale>
<asrwt>0</asrwt>
<pdfrwt beam="1">  1       21 0.12641005E-01 0.12500219E+03</pdfrwt>
<pdfrwt beam="2">  1       21 0.73142014E-02 0.12500219E+03</pdfrwt>
<totfact> 0.73399755E+06</totfact>
</mgrwt>
</event>
<event>
 9    1  0.4541185E-002  0.1250184E+03  0.7818608E-02  0.1235041E+00
         21   -1    0    0  503  502  0.00000000000E+00  0.00000000000E+00  0.32163261277E+03  0.32163261277E+03  0.00000000000E+00 0. -1.
         21   -1    0    0  502  503 -0.00000000000E+00 -0.00000000000E+00 -0.12148646605E+02  0.12148646605E+02  0.00000000000E+00 0. -1.
         25    2    1    2    0    0 -0.35527136788E-14 -0.35527136788E-14  0.30948396617E+03  0.33378125938E+03  0.12501841383E+03 0.  0.
    9000006    2    3    3    0    0  0.98671639882E+01 -0.13651883091E+02  0.14175286159E+03  0.15484743625E+03  0.60000999208E+02 0.  0.
    9000007    2    3    3    0    0 -0.98671639882E+01  0.13651883091E+02  0.16773110458E+03  0.17893382313E+03  0.59998789827E+02 0.  0.
          5    1    4    4  501    0 -0.16212093618E+02 -0.90815495008E+01  0.11613933599E+03  0.11771041536E+03  0.47000000000E+01 0.  1.
         -5    1    4    4    0  501  0.26079257606E+02 -0.45703335905E+01  0.25613525601E+02  0.37137020884E+02  0.47000000000E+01 0.  1.
         12    1    5    5    0    0  0.11229298487E+02 -0.14574391239E+02  0.20505600092E+02  0.27549766962E+02  0.00000000000E+00 0. -1.
        -12    1    5    5    0    0 -0.21096462475E+02  0.28226274331E+02  0.14722550449E+03  0.15138405617E+03  0.00000000000E+00 0. -1.
<mgrwt>
<rscale>  0 0.12501841E+03</rscale>
<asrwt>0</asrwt>
<pdfrwt beam="1">  1       21 0.49481934E-01 0.12501841E+03</pdfrwt>
<pdfrwt beam="2">  1       21 0.18690228E-02 0.12501841E+03</pdfrwt>
<totfact> 0.52734658E+06</totfact>
</mgrwt>
</event>
<event>
 9    1  0.4541185E-002  0.1249977E+03  0.7818608E-02  0.1235073E+00
         21   -1    0    0  503  502  0.00000000000E+00  0.00000000000E+00  0.58146908236E+03  0.58146908236E+03  0.00000000000E+00 0. -1.
         21   -1    0    0  502  503 -0.00000000000E+00 -0.00000000000E+00 -0.67176553971E+01  0.67176553971E+01  0.00000000000E+00 0. -1.
         25    2    1    2    0    0  0.00000000000E+00 -0.17763568394E-14  0.57475142696E+03  0.58818673775E+03  0.12499774269E+03 0.  0.
    9000006    2    3    3    0    0  0.11729757263E+02 -0.38575556448E+01  0.34583692940E+03  0.35122024647E+03  0.60000098770E+02 0.  0.
    9000007    2    3    3    0    0 -0.11729757263E+02  0.38575556448E+01  0.22891449755E+03  0.23696649128E+03  0.59990022983E+02 0.  0.
          5    1    4    4  501    0  0.25232061724E+02  0.18318622858E+02  0.24364382987E+03  0.24567587328E+03  0.47000000000E+01 0.  1.
         -5    1    4    4    0  501 -0.13502304461E+02 -0.22176178503E+02  0.10219309954E+03  0.10554437319E+03  0.47000000000E+01 0.  1.
         12    1    5    5    0    0  0.16758058300E+02  0.18055220528E+02  0.56471216574E+02  0.61610241094E+02  0.00000000000E+00 0.  1.
        -12    1    5    5    0    0 -0.28487815563E+02 -0.14197664883E+02  0.17244328098E+03  0.17535625018E+03  0.00000000000E+00 0.  1.
<mgrwt>
<rscale>  0 0.12499774E+03</rscale>
<asrwt>0</asrwt>
<pdfrwt beam="1">  1       21 0.89456742E-01 0.12499774E+03</pdfrwt>
<pdfrwt beam="2">  1       21 0.10334859E-02 0.12499774E+03</pdfrwt>
<totfact> 0.37634500E+06</totfact>
</mgrwt>
</event>
<event>
 8    1  0.4541185E-002  0.1278845E+03  0.7818608E-02  0.1230629E+00
         21   -1    0    0  503  502  0.00000000000E+00  0.00000000000E+00  0.10502973206E+03  0.10502973206E+03  0.00000000000E+00 0.  1.
         21   -1    0    0  502  503 -0.00000000000E+00 -0.00000000000E+00 -0.38928134953E+02  0.38928134953E+02  0.00000000000E+00 0.  1.
    9000006    2    1    2    0    0  0.69813360269E+01 -0.20175329611E+02  0.39510439919E+02  0.74943718370E+02  0.59997525639E+02 0.  0.
    9000007    2    1    2    0    0 -0.69813360269E+01  0.20175329611E+02  0.26591157189E+02  0.69014148644E+02  0.60000667453E+02 0.  0.
          5    1    3    3  501    0  0.12491334285E+00  0.19151454145E+02  0.17569452368E+01  0.19798248806E+02  0.47000000000E+01 0.  1.
         -5    1    3    3    0  501  0.68564226841E+01 -0.39326783757E+02  0.37753494683E+02  0.55145469564E+02  0.47000000000E+01 0.  1.
         12    1    4    4    0    0  0.17078075801E+02  0.32297873965E+02  0.12526083930E+02  0.38622740896E+02  0.00000000000E+00 0.  1.
        -12    1    4    4    0    0 -0.24059411828E+02 -0.12122544354E+02  0.14065073259E+02  0.30391407748E+02  0.00000000000E+00 0.  1.
<mgrwt>
<rscale>  0 0.12788450E+03</rscale>
<asrwt>0</asrwt>
<pdfrwt beam="1">  1       21 0.16158420E-01 0.12788450E+03</pdfrwt>
<pdfrwt beam="2">  1       21 0.59889439E-02 0.12788450E+03</pdfrwt>
<totfact> 0.66510331E+06</totfact>
</mgrwt>
</event>
<event>
 9    1  0.4541185E-002  0.1250004E+03  0.7818608E-02  0.1235069E+00
         21   -1    0    0  503  502  0.00000000000E+00  0.00000000000E+00  0.15025811253E+02  0.15025811253E+02  0.00000000000E+00 0. -1.
         21   -1    0    0  502  503 -0.00000000000E+00 -0.00000000000E+00 -0.25997118510E+03  0.25997118510E+03  0.00000000000E+00 0. -1.
         25    2    1    2    0    0  0.35527136788E-14  0.35527136788E-14 -0.24494537385E+03  0.27499699636E+03  0.12500044734E+03 0.  0.
    9000006    2    3    3    0    0  0.90471050614E-01 -0.16992366181E+02 -0.11313611148E+03  0.12918150613E+03  0.59994442347E+02 0.  0.
    9000007    2    3    3    0    0 -0.90471050614E-01  0.16992366181E+02 -0.13180926237E+03  0.14581549022E+03  0.59997723698E+02 0.  0.
          5    1    4    4  501    0 -0.28226812689E+02 -0.73041518677E+01 -0.74100969829E+02  0.79769338212E+02  0.47000000000E+01 0.  1.
         -5    1    4    4    0  501  0.28317283740E+02 -0.96882143132E+01 -0.39035141649E+02  0.49412167920E+02  0.47000000000E+01 0.  1.
         12    1    5    5    0    0  0.13473223326E+02  0.19431434810E+02 -0.12974314891E+03  0.13188022253E+03  0.00000000000E+00 0. -1.
        -12    1    5    5    0    0 -0.13563694376E+02 -0.24390686290E+01 -0.20661134640E+01  0.13935267696E+02  0.00000000000E+00 0. -1.
<mgrwt>
<rscale>  0 0.12500045E+03</rscale>
<asrwt>0</asrwt>
<pdfrwt beam="1">  1       21 0.23116632E-02 0.12500045E+03</pdfrwt>
<pdfrwt beam="2">  1       21 0.39995569E-01 0.12500045E+03</pdfrwt>
<totfact> 0.57599556E+06</totfact>
</mgrwt>
</event>
<event>
 9    1  0.4541185E-002  0.1249821E+03  0.7818608E-02  0.1235097E+00
         21   -1    0    0  503  502  0.00000000000E+00  0.00000000000E+00  0.71805129638E+02  0.71805129638E+02  0.00000000000E+00 0.  1.
         21   -1    0    0  502  503 -0.00000000000E+00 -0.00000000000E+00 -0.54385134081E+02  0.54385134081E+02  0.00000000000E+00 0.  1.
         25    2    1    2    0    0 -0.17763568394E-14 -0.17763568394E-14  0.17419995558E+02  0.12619026372E+03  0.12498210437E+03 0.  0.
    9000006    2    3    3    0    0 -0.11934013136E+02 -0.91735123562E+01  0.17655837012E+02  0.64330862933E+02  0.60001311208E+02 0.  0.
    9000007    2    3    3    0    0  0.11934013136E+02  0.91735123562E+01 -0.23584145415E+00  0.61859400787E+02  0.59999632049E+02 0.  0.
          5    1    4    4  501    0 -0.70583501984E+01  0.24144081881E+02 -0.88460197554E+00  0.25605263484E+02  0.47000000000E+01 0. -1.
         -5    1    4    4    0  501 -0.48756629381E+01 -0.33317594238E+02  0.18540438987E+02  0.38725599449E+02  0.47000000000E+01 0. -1.
         12    1    5    5    0    0  0.21644455191E+02 -0.70573612904E+01  0.22687497827E+02  0.32140493875E+02  0.00000000000E+00 0. -1.
        -12    1    5    5    0    0 -0.97104420547E+01  0.16230873647E+02 -0.22923339281E+02  0.29718906911E+02  0.00000000000E+00 0. -1.
<mgrwt>
<rscale>  0 0.12498210E+03</rscale>
<asrwt>0</asrwt>
<pdfrwt beam="1">  1       21 0.11046943E-01 0.12498210E+03</pdfrwt>
<pdfrwt beam="2">  1       21 0.83669437E-02 0.12498210E+03</pdfrwt>
<totfact> 0.73913594E+06</totfact>
</mgrwt>
</event>
<event>
 9    1  0.4541185E-002  0.1250039E+03  0.7818608E-02  0.1235063E+00
         21   -1    0    0  503  502  0.00000000000E+00  0.00000000000E+00  0.71144989344E+02  0.71144989344E+02  0.00000000000E+00 0.  1.
         21   -1    0    0  502  503 -0.00000000000E+00 -0.00000000000E+00 -0.54908944267E+02  0.54908944267E+02  0.00000000000E+00 0.  1.
         25    2    1    2    0    0  0.00000000000E+00  0.00000000000E+00  0.16236045077E+02  0.12605393361E+03  0.12500394001E+03 0.  0.
    9000006    2    3    3    0    0  0.32770851929E+01 -0.17181754904E+02  0.74058141070E+01  0.62935328536E+02  0.60000479218E+02 0.  0.
    9000007    2    3    3    0    0 -0.32770851929E+01  0.17181754904E+02  0.88302309697E+01  0.63118605076E+02  0.60000277822E+02 0.  0.
          5    1    4    4  501    0  0.19810870415E+01  0.17226981733E+02 -0.13416033925E+02  0.22422612956E+02  0.47000000000E+01 0.  1.
         -5    1    4    4    0  501  0.12959981514E+01 -0.34408736637E+02  0.20821848032E+02  0.40512715580E+02  0.47000000000E+01 0.  1.
         12    1    5    5    0    0  0.19883685310E+02 -0.11877751529E+02 -0.45857497379E+01  0.23610824288E+02  0.00000000000E+00 0.  1.
        -12    1    5    5    0    0 -0.23160770503E+02  0.29059506433E+02  0.13415980708E+02  0.39507780788E+02  0.00000000000E+00 0.  1.
<mgrwt>
<rscale>  0 0.12500394E+03</rscale>
<asrwt>0</asrwt>
<pdfrwt beam="1">  1       21 0.10945383E-01 0.12500394E+03</pdfrwt>
<pdfrwt beam="2">  1       21 0.84475299E-02 0.12500394E+03</pdfrwt>
<totfact> 0.73891177E+06</totfact>
</mgrwt>
</event>
<event>
 9    1  0.4541185E-002  0.1250037E+03  0.7818608E-02  0.1235064E+00
         21   -1    0    0  503  502  0.00000000000E+00  0.00000000000E+00  0.26883563662E+04  0.26883563662E+04  0.00000000000E+00 0.  1.
         21   -1    0    0  502  503 -0.00000000000E+00 -0.00000000000E+00 -0.14531106041E+01  0.14531106041E+01  0.00000000000E+00 0.  1.
         25    2    1    2    0    0  0.17763568394E-14  0.00000000000E+00  0.26869032556E+04  0.26898094768E+04  0.12500366624E+03 0.  0.
    9000006    2    3    3    0    0 -0.47915576553E+01  0.10325946311E+02  0.10571989741E+04  0.10589613744E+04  0.59999477505E+02 0.  0.
    9000007    2    3    3    0    0  0.47915576553E+01 -0.10325946311E+02  0.16297042815E+04  0.16308481025E+04  0.59999200102E+02 0.  0.
          5    1    4    4  501    0  0.12380896486E+02  0.20347007518E+02  0.19299414580E+03  0.19451508328E+03  0.47000000000E+01 0.  1.
         -5    1    4    4    0  501 -0.17172454141E+02 -0.10021061207E+02  0.86420482832E+03  0.86444629107E+03  0.47000000000E+01 0.  1.
         12    1    5    5    0    0  0.66240044230E+01 -0.24408198647E+01  0.21617839620E+02  0.22741284617E+02  0.00000000000E+00 0. -1.
        -12    1    5    5    0    0 -0.18324467677E+01 -0.78851264461E+01  0.16080864419E+04  0.16081068179E+04  0.00000000000E+00 0. -1.
<mgrwt>
<rscale>  0 0.12500367E+03</rscale>
<asrwt>0</asrwt>
<pdfrwt beam="1">  1       21 0.41358931E+00 0.12500367E+03</pdfrwt>
<pdfrwt beam="2">  1       21 0.22355763E-03 0.12500367E+03</pdfrwt>
<totfact> 0.29825201E+05</totfact>
</mgrwt>
</event>
<event>
 9    1  0.4541185E-002  0.1250008E+03  0.7818608E-02  0.1235068E+00
         21   -1    0    0  503  502  0.00000000000E+00  0.00000000000E+00  0.44813146732E+02  0.44813146732E+02  0.00000000000E+00 0.  1.
         21   -1    0    0  502  503 -0.00000000000E+00 -0.00000000000E+00 -0.87168677284E+02  0.87168677284E+02  0.00000000000E+00 0.  1.
         25    2    1    2    0    0  0.00000000000E+00  0.00000000000E+00 -0.42355530551E+02  0.13198182402E+03  0.12500084361E+03 0.  0.
    9000006    2    3    3    0    0 -0.11697182043E+02  0.24159054213E+01 -0.76695842858E+01  0.61655650708E+02  0.59999467284E+02 0.  0.
    9000007    2    3    3    0    0  0.11697182043E+02 -0.24159054213E+01 -0.34685946265E+02  0.70326173308E+02  0.59999959309E+02 0.  0.
          5    1    4    4  501    0 -0.31511070253E+02 -0.13233246299E+02 -0.98604860301E+01  0.35880155251E+02  0.47000000000E+01 0. -1.
         -5    1    4    4    0  501  0.19813888211E+02  0.15649151720E+02  0.21909017442E+01  0.25775495457E+02  0.47000000000E+01 0. -1.
         12    1    5    5    0    0  0.22122147478E+02 -0.26604441390E+02 -0.22742517216E+02  0.41405407860E+02  0.00000000000E+00 0.  1.
        -12    1    5    5    0    0 -0.10424965435E+02  0.24188535969E+02 -0.11943429050E+02  0.28920765448E+02  0.00000000000E+00 0.  1.
<mgrwt>
<rscale>  0 0.12500084E+03</rscale>
<asrwt>0</asrwt>
<pdfrwt beam="1">  1       21 0.68943304E-02 0.12500084E+03</pdfrwt>
<pdfrwt beam="2">  1       21 0.13410566E-01 0.12500084E+03</pdfrwt>
<totfact> 0.73097094E+06</totfact>
</mgrwt>
</event>
<event>
 9    1  0.4541185E-002  0.1249995E+03  0.7818608E-02  0.1235070E+00
         21   -1    0    0  503  502  0.00000000000E+00  0.00000000000E+00  0.83169959569E+03  0.83169959569E+03  0.00000000000E+00 0. -1.
         21   -1    0    0  502  503 -0.00000000000E+00 -0.00000000000E+00 -0.46966716173E+01  0.46966716173E+01  0.00000000000E+00 0. -1.
         25    2    1    2    0    0  0.00000000000E+00  0.17763568394E-14  0.82700292407E+03  0.83639626731E+03  0.12499951816E+03 0.  0.
    9000006    2    3    3    0    0  0.14770961592E+02 -0.40725953595E+01  0.35697045116E+03  0.36230212492E+03  0.60001328165E+02 0.  0.
    9000007    2    3    3    0    0 -0.14770961592E+02  0.40725953595E+01  0.47003247291E+03  0.47409414238E+03  0.59999690943E+02 0.  0.
          5    1    4    4  501    0  0.21167160908E+02  0.66238981843E-01  0.35070744074E+03  0.35137707962E+03  0.47000000000E+01 0.  1.
         -5    1    4    4    0  501 -0.63961993163E+01 -0.41388343413E+01  0.62630104187E+01  0.10925045304E+02  0.47000000000E+01 0.  1.
         12    1    5    5    0    0 -0.34625982540E+02  0.16646897210E+02  0.29412117862E+03  0.29661986711E+03  0.00000000000E+00 0.  1.
        -12    1    5    5    0    0  0.19855020948E+02 -0.12574301851E+02  0.17591129430E+03  0.17747427528E+03  0.00000000000E+00 0.  1.
<mgrwt>
<rscale>  0 0.12499952E+03</rscale>
<asrwt>0</asrwt>
<pdfrwt beam="1">  1       21 0.12795367E+00 0.12499952E+03</pdfrwt>
<pdfrwt beam="2">  1       21 0.72256552E-03 0.12499952E+03</pdfrwt>
<totfact> 0.28192254E+06</totfact>
</mgrwt>
</event>
<event>
 9    1  0.4541185E-002  0.1250002E+03  0.7818608E-02  0.1235069E+00
         21   -1    0    0  503  502  0.00000000000E+00  0.00000000000E+00  0.14868921778E+03  0.14868921778E+03  0.00000000000E+00 0. -1.
         21   -1    0    0  502  503 -0.00000000000E+00 -0.00000000000E+00 -0.26271336264E+02  0.26271336264E+02  0.00000000000E+00 0. -1.
         25    2    1    2    0    0  0.00000000000E+00  0.88817841970E-15  0.12241788151E+03  0.17496055404E+03  0.12500023102E+03 0.  0.
    9000006    2    3    3    0    0 -0.16827604678E+02 -0.41894151696E+01  0.64511251602E+02  0.89790653152E+02  0.59999502761E+02 0.  0.
    9000007    2    3    3    0    0  0.16827604678E+02  0.41894151696E+01  0.57906629911E+02  0.85169900889E+02  0.60000122925E+02 0.  0.
          5    1    4    4  501    0  0.20907724627E+02  0.10955801408E+01  0.36225440443E+02  0.42103512682E+02  0.47000000000E+01 0.  1.
         -5    1    4    4    0  501 -0.37735329306E+02 -0.52849953104E+01  0.28285811160E+02  0.47687140470E+02  0.47000000000E+01 0.  1.
         12    1    5    5    0    0 -0.14519816364E+02 -0.24307590925E+01 -0.41802218199E+01  0.15303852831E+02  0.00000000000E+00 0. -1.
        -12    1    5    5    0    0  0.31347421043E+02  0.66201742621E+01  0.62086851731E+02  0.69866048057E+02  0.00000000000E+00 0. -1.
<mgrwt>
<rscale>  0 0.12500023E+03</rscale>
<asrwt>0</asrwt>
<pdfrwt beam="1">  1       21 0.22875264E-01 0.12500023E+03</pdfrwt>
<pdfrwt beam="2">  1       21 0.40417441E-02 0.12500023E+03</pdfrwt>
<totfact> 0.67734004E+06</totfact>
</mgrwt>
</event>
<event>
 9    1  0.4541185E-002  0.1249996E+03  0.7818608E-02  0.1235070E+00
         21   -1    0    0  503  502  0.00000000000E+00  0.00000000000E+00  0.11968783153E+03  0.11968783153E+03  0.00000000000E+00 0.  1.
         21   -1    0    0  502  503 -0.00000000000E+00 -0.00000000000E+00 -0.32636780365E+02  0.32636780365E+02  0.00000000000E+00 0.  1.
         25    2    1    2    0    0  0.00000000000E+00  0.00000000000E+00  0.87051051170E+02  0.15232461190E+03  0.12499960752E+03 0.  0.
    9000006    2    3    3    0    0  0.12575206170E+01 -0.18165873804E+00  0.64794603168E+02  0.88317209621E+02  0.59999787979E+02 0.  0.
    9000007    2    3    3    0    0 -0.12575206170E+01  0.18165873804E+00  0.22256448002E+02  0.64007402279E+02  0.59999864257E+02 0.  0.
          5    1    4    4  501    0 -0.16825341049E+02  0.23640916584E+02  0.27212511903E+02  0.40057406836E+02  0.47000000000E+01 0. -1.
         -5    1    4    4    0  501  0.18082861666E+02 -0.23822575322E+02  0.37582091265E+02  0.48259802785E+02  0.47000000000E+01 0. -1.
         12    1    5    5    0    0  0.11021511815E+02  0.27231580406E+02  0.16678770883E+02  0.33781860403E+02  0.00000000000E+00 0. -1.
        -12    1    5    5    0    0 -0.12279032432E+02 -0.27049921668E+02  0.55776771185E+01  0.30225541877E+02  0.00000000000E+00 0. -1.
<mgrwt>
<rscale>  0 0.12499961E+03</rscale>
<asrwt>0</asrwt>
<pdfrwt beam="1">  1       21 0.18413512E-01 0.12499961E+03</pdfrwt>
<pdfrwt beam="2">  1       21 0.50210432E-02 0.12499961E+03</pdfrwt>
<totfact> 0.70469099E+06</totfact>
</mgrwt>
</event>
<event>
 9    1  0.4541185E-002  0.1250110E+03  0.7818608E-02  0.1235052E+00
         21   -1    0    0  503  502  0.00000000000E+00  0.00000000000E+00  0.21778188814E+02  0.21778188814E+02  0.00000000000E+00 0. -1.
         21   -1    0    0  502  503 -0.00000000000E+00 -0.00000000000E+00 -0.17939676961E+03  0.17939676961E+03  0.00000000000E+00 0. -1.
         25    2    1    2    0    0 -0.35527136788E-14 -0.88817841970E-15 -0.15761858080E+03  0.20117495842E+03  0.12501098706E+03 0.  0.
    9000006    2    3    3    0    0  0.16549143500E+02  0.40750818565E+01 -0.85335383089E+02  0.10570068029E+03  0.60000214696E+02 0.  0.
    9000007    2    3    3    0    0 -0.16549143500E+02 -0.40750818565E+01 -0.72283197707E+02  0.95474278137E+02  0.59999972269E+02 0.  0.
          5    1    4    4  501    0  0.38366196954E+02  0.85596854083E+01 -0.55487907659E+02  0.68163268550E+02  0.47000000000E+01 0.  1.
         -5    1    4    4    0  501 -0.21817053454E+02 -0.44846035518E+01 -0.29847475430E+02  0.37537411737E+02  0.47000000000E+01 0.  1.
         12    1    5    5    0    0 -0.15202246859E+02 -0.27097313406E+02 -0.16649671891E+02  0.35250308899E+02  0.00000000000E+00 0. -1.
        -12    1    5    5    0    0 -0.13468966415E+01  0.23022231549E+02 -0.55633525817E+02  0.60223969239E+02  0.00000000000E+00 0. -1.
<mgrwt>
<rscale>  0 0.12501099E+03</rscale>
<asrwt>0</asrwt>
<pdfrwt beam="1">  1       21 0.33504906E-02 0.12501099E+03</pdfrwt>
<pdfrwt beam="2">  1       21 0.27599503E-01 0.12501099E+03</pdfrwt>
<totfact> 0.64782141E+06</totfact>
</mgrwt>
</event>
<event>
 9    1  0.4541185E-002  0.1250014E+03  0.7818608E-02  0.1235067E+00
         21   -1    0    0  503  502  0.00000000000E+00  0.00000000000E+00  0.24469394303E+04  0.24469394303E+04  0.00000000000E+00 0.  1.
         21   -1    0    0  502  503 -0.00000000000E+00 -0.00000000000E+00 -0.15964178270E+01  0.15964178270E+01  0.00000000000E+00 0.  1.
         25    2    1    2    0    0 -0.35527136788E-14  0.88817841970E-15  0.24453430125E+04  0.24485358481E+04  0.12500140364E+03 0.  0.
    9000006    2    3    3    0    0 -0.20209412238E+01 -0.34176473282E+01  0.15566247111E+04  0.15577856067E+04  0.59997840865E+02 0.  0.
    9000007    2    3    3    0    0  0.20209412238E+01  0.34176473282E+01  0.88871830137E+03  0.89075024136E+03  0.60000073177E+02 0.  0.
          5    1    4    4  501    0 -0.24062144834E+02 -0.79333418916E+01  0.35212274473E+03  0.35306435969E+03  0.47000000000E+01 0. -1.
         -5    1    4    4    0  501  0.22041203610E+02  0.45156945634E+01  0.12045019664E+04  0.12047212471E+04  0.47000000000E+01 0. -1.
         12    1    5    5    0    0 -0.21333925111E+02 -0.15144722345E+02  0.25709489776E+03  0.25842268752E+03  0.00000000000E+00 0.  1.
        -12    1    5    5    0    0  0.23354866335E+02  0.18562369673E+02  0.63162340362E+03  0.63232755384E+03  0.00000000000E+00 0.  1.
<mgrwt>
<rscale>  0 0.12500140E+03</rscale>
<asrwt>0</asrwt>
<pdfrwt beam="1">  1       21 0.37644922E+00 0.12500140E+03</pdfrwt>
<pdfrwt beam="2">  1       21 0.24560470E-03 0.12500140E+03</pdfrwt>
<totfact> 0.43442311E+05</totfact>
</mgrwt>
</event>
<event>
 9    1  0.4541185E-002  0.1249997E+03  0.7818608E-02  0.1235070E+00
         21   -1    0    0  503  502  0.00000000000E+00  0.00000000000E+00  0.15499637590E+03  0.15499637590E+03  0.00000000000E+00 0. -1.
         21   -1    0    0  502  503 -0.00000000000E+00 -0.00000000000E+00 -0.25202068651E+02  0.25202068651E+02  0.00000000000E+00 0. -1.
         25    2    1    2    0    0  0.17763568394E-14  0.17763568394E-14  0.12979430725E+03  0.18019844455E+03  0.12499966890E+03 0.  0.
    9000006    2    3    3    0    0  0.32258740777E+01  0.43827091420E+01  0.40926455258E+02  0.72833396959E+02  0.60000954740E+02 0.  0.
    9000007    2    3    3    0    0 -0.32258740777E+01 -0.43827091420E+01  0.88867851994E+02  0.10736504759E+03  0.60001199354E+02 0.  0.
          5    1    4    4  501    0  0.27784215980E+02  0.15679566950E+02  0.17134416443E+02  0.36516978300E+02  0.47000000000E+01 0.  1.
         -5    1    4    4    0  501 -0.24558341902E+02 -0.11296857808E+02  0.23792038814E+02  0.36316418659E+02  0.47000000000E+01 0.  1.
         12    1    5    5    0    0  0.81373695629E+01  0.21177453651E+02  0.70100720631E+02  0.73680474751E+02  0.00000000000E+00 0.  1.
        -12    1    5    5    0    0 -0.11363243641E+02 -0.25560162793E+02  0.18767131362E+02  0.33684572843E+02  0.00000000000E+00 0.  1.
<mgrwt>
<rscale>  0 0.12499967E+03</rscale>
<asrwt>0</asrwt>
<pdfrwt beam="1">  1       21 0.23845596E-01 0.12499967E+03</pdfrwt>
<pdfrwt beam="2">  1       21 0.38772414E-02 0.12499967E+03</pdfrwt>
<totfact> 0.67129343E+06</totfact>
</mgrwt>
</event>
<event>
 9    1  0.4541185E-002  0.1250009E+03  0.7818608E-02  0.1235068E+00
         21   -1    0    0  503  502  0.00000000000E+00  0.00000000000E+00  0.22120470352E+02  0.22120470352E+02  0.00000000000E+00 0. -1.
         21   -1    0    0  502  503 -0.00000000000E+00 -0.00000000000E+00 -0.17659241827E+03  0.17659241827E+03  0.00000000000E+00 0. -1.
         25    2    1    2    0    0  0.00000000000E+00  0.17763568394E-14 -0.15447194792E+03  0.19871288862E+03  0.12500091764E+03 0.  0.
    9000006    2    3    3    0    0  0.14043265686E+02  0.23753971549E+01 -0.93415658652E+02  0.11193318709E+03  0.59997477181E+02 0.  0.
    9000007    2    3    3    0    0 -0.14043265686E+02 -0.23753971549E+01 -0.61056289265E+02  0.86779701530E+02  0.59999919300E+02 0.  0.
          5    1    4    4  501    0 -0.16994174662E+02  0.19164088170E+02 -0.41035465177E+02  0.48601066347E+02  0.47000000000E+01 0. -1.
         -5    1    4    4    0  501  0.31037440348E+02 -0.16788691015E+02 -0.52380193476E+02  0.63332120744E+02  0.47000000000E+01 0. -1.
         12    1    5    5    0    0 -0.32233085569E+02  0.73846418886E+01 -0.15004803403E+02  0.36313205123E+02  0.00000000000E+00 0. -1.
        -12    1    5    5    0    0  0.18189819883E+02 -0.97600390435E+01 -0.46051485862E+02  0.50466496407E+02  0.00000000000E+00 0. -1.
<mgrwt>
<rscale>  0 0.12500092E+03</rscale>
<asrwt>0</asrwt>
<pdfrwt beam="1">  1       21 0.34031494E-02 0.12500092E+03</pdfrwt>
<pdfrwt beam="2">  1       21 0.27168064E-01 0.12500092E+03</pdfrwt>
<totfact> 0.65065419E+06</totfact>
</mgrwt>
</event>
<event>
 9    1  0.4541185E-002  0.1250036E+03  0.7818608E-02  0.1235064E+00
         21   -1    0    0  503  502  0.00000000000E+00  0.00000000000E+00  0.13875256401E+03  0.13875256401E+03  0.00000000000E+00 0.  1.
         21   -1    0    0  502  503 -0.00000000000E+00 -0.00000000000E+00 -0.28154232842E+02  0.28154232842E+02  0.00000000000E+00 0.  1.
         25    2    1    2    0    0 -0.17763568394E-14  0.00000000000E+00  0.11059833117E+03  0.16690679686E+03  0.12500355186E+03 0.  0.
    9000006    2    3    3    0    0  0.21997131792E+01 -0.17341016099E+02  0.56639075731E+02  0.84341676970E+02  0.59999866642E+02 0.  0.
    9000007    2    3    3    0    0 -0.21997131792E+01  0.17341016099E+02  0.53959255443E+02  0.82565119887E+02  0.59998734958E+02 0.  0.
          5    1    4    4  501    0 -0.18171572807E+02 -0.41251408099E+01 -0.33011875188E+01  0.19498991872E+02  0.47000000000E+01 0. -1.
         -5    1    4    4    0  501  0.20371285986E+02 -0.13215875289E+02  0.59940263249E+02  0.64842685098E+02  0.47000000000E+01 0. -1.
         12    1    5    5    0    0 -0.11206720849E+02  0.21985519656E+02 -0.28664110658E+01  0.24842906012E+02  0.00000000000E+00 0. -1.
        -12    1    5    5    0    0  0.90070076699E+01 -0.46445035569E+01  0.56825666509E+02  0.57722213875E+02  0.00000000000E+00 0. -1.
<mgrwt>
<rscale>  0 0.12500355E+03</rscale>
<asrwt>0</asrwt>
<pdfrwt beam="1">  1       21 0.21346548E-01 0.12500355E+03</pdfrwt>
<pdfrwt beam="2">  1       21 0.43314205E-02 0.12500355E+03</pdfrwt>
<totfact> 0.68679056E+06</totfact>
</mgrwt>
</event>
<event>
 9    1  0.4541185E-002  0.1250006E+03  0.7818608E-02  0.1235068E+00
         21   -1    0    0  503  502  0.00000000000E+00  0.00000000000E+00  0.10139403214E+03  0.10139403214E+03  0.00000000000E+00 0.  1.
         21   -1    0    0  502  503 -0.00000000000E+00 -0.00000000000E+00 -0.38525818073E+02  0.38525818073E+02  0.00000000000E+00 0.  1.
         25    2    1    2    0    0  0.00000000000E+00  0.00000000000E+00  0.62868214069E+02  0.13991985022E+03  0.12500060858E+03 0.  0.
    9000006    2    3    3    0    0  0.14680755952E+02 -0.82133887612E+01  0.26031198210E+02  0.67531912816E+02  0.59999596816E+02 0.  0.
    9000007    2    3    3    0    0 -0.14680755952E+02  0.82133887612E+01  0.36837015860E+02  0.72387937400E+02  0.60000528275E+02 0.  0.
          5    1    4    4  501    0  0.11239422771E+00  0.25115525987E+02  0.89578875550E+01  0.27076484770E+02  0.47000000000E+01 0.  1.
         -5    1    4    4    0  501  0.14568361724E+02 -0.33328914748E+02  0.17073310655E+02  0.40455428046E+02  0.47000000000E+01 0.  1.
         12    1    5    5    0    0 -0.23155916803E+02  0.97181129492E+01 -0.82914380312E+01  0.26445909833E+02  0.00000000000E+00 0. -1.
        -12    1    5    5    0    0  0.84751608512E+01 -0.15047241879E+01  0.45128453891E+02  0.45942027566E+02  0.00000000000E+00 0. -1.
<mgrwt>
<rscale>  0 0.12500061E+03</rscale>
<asrwt>0</asrwt>
<pdfrwt beam="1">  1       21 0.15599082E-01 0.12500061E+03</pdfrwt>
<pdfrwt beam="2">  1       21 0.59270490E-02 0.12500061E+03</pdfrwt>
<totfact> 0.72048656E+06</totfact>
</mgrwt>
</event>
<event>
 9    1  0.4541185E-002  0.1249998E+03  0.7818608E-02  0.1235070E+00
         21   -1    0    0  503  502  0.00000000000E+00  0.00000000000E+00  0.18382289514E+02  0.18382289514E+02  0.00000000000E+00 0. -1.
         21   -1    0    0  502  503 -0.00000000000E+00 -0.00000000000E+00 -0.21250013341E+03  0.21250013341E+03  0.00000000000E+00 0. -1.
         25    2    1    2    0    0  0.00000000000E+00  0.17763568394E-14 -0.19411784389E+03  0.23088242292E+03  0.12499982359E+03 0.  0.
    9000006    2    3    3    0    0 -0.91986114938E+01  0.11546286577E+02 -0.11441054985E+03  0.13003071044E+03  0.60002337897E+02 0.  0.
    9000007    2    3    3    0    0  0.91986114938E+01 -0.11546286577E+02 -0.79707294042E+02  0.10085171248E+03  0.59999033325E+02 0.  0.
          5    1    4    4  501    0 -0.27508098452E+02  0.59142971427E+01 -0.23367425508E+02  0.36875479197E+02  0.47000000000E+01 0.  1.
         -5    1    4    4    0  501  0.18309486959E+02  0.56319894348E+01 -0.91043124343E+02  0.93155231243E+02  0.47000000000E+01 0.  1.
         12    1    5    5    0    0  0.25560600308E+02 -0.18097665608E+02 -0.16837140832E+02  0.35557827548E+02  0.00000000000E+00 0. -1.
        -12    1    5    5    0    0 -0.16361988814E+02  0.65513790304E+01 -0.62870153210E+02  0.65293884934E+02  0.00000000000E+00 0. -1.
<mgrwt>
<rscale>  0 0.12499982E+03</rscale>
<asrwt>0</asrwt>
<pdfrwt beam="1">  1       21 0.28280446E-02 0.12499982E+03</pdfrwt>
<pdfrwt beam="2">  1       21 0.32692327E-01 0.12499982E+03</pdfrwt>
<totfact> 0.61726548E+06</totfact>
</mgrwt>
</event>
<event>
 9    1  0.4541185E-002  0.1250496E+03  0.7818608E-02  0.1234992E+00
         21   -1    0    0  503  502  0.00000000000E+00  0.00000000000E+00  0.54601208626E+03  0.54601208626E+03  0.00000000000E+00 0. -1.
         21   -1    0    0  502  503 -0.00000000000E+00 -0.00000000000E+00 -0.71598226565E+01  0.71598226565E+01  0.00000000000E+00 0. -1.
         25    2    1    2    0    0 -0.31086244690E-14  0.17763568394E-14  0.53885226360E+03  0.55317190891E+03  0.12504958546E+03 0.  0.
    9000006    2    3    3    0    0 -0.32236774192E+01  0.15777123631E+02  0.30071743058E+03  0.30706733989E+03  0.60000570359E+02 0.  0.
    9000007    2    3    3    0    0  0.32236774192E+01 -0.15777123631E+02  0.23813483302E+03  0.24610456903E+03  0.59999587271E+02 0.  0.
          5    1    4    4  501    0 -0.66249958066E+01 -0.21787140781E+02  0.13989699065E+03  0.14181617702E+03  0.47000000000E+01 0. -1.
         -5    1    4    4    0  501  0.34013183875E+01  0.37564264413E+02  0.16082043993E+03  0.16525116287E+03  0.47000000000E+01 0. -1.
         12    1    5    5    0    0 -0.23789364207E+02 -0.23864350016E+02  0.11905338349E+03  0.12373014658E+03  0.00000000000E+00 0. -1.
        -12    1    5    5    0    0  0.27013041626E+02  0.80872263846E+01  0.11908144953E+03  0.12237442245E+03  0.00000000000E+00 0. -1.
<mgrwt>
<rscale>  0 0.12504959E+03</rscale>
<asrwt>0</asrwt>
<pdfrwt beam="1">  1       21 0.84001827E-01 0.12504959E+03</pdfrwt>
<pdfrwt beam="2">  1       21 0.11015116E-02 0.12504959E+03</pdfrwt>
<totfact> 0.39251392E+06</totfact>
</mgrwt>
</event>
<event>
 9    1  0.4541185E-002  0.1250012E+03  0.7818608E-02  0.1235067E+00
         21   -1    0    0  503  502  0.00000000000E+00  0.00000000000E+00  0.11770177899E+03  0.11770177899E+03  0.00000000000E+00 0.  1.
         21   -1    0    0  502  503 -0.00000000000E+00 -0.00000000000E+00 -0.33188349067E+02  0.33188349067E+02  0.00000000000E+00 0.  1.
         25    2    1    2    0    0  0.00000000000E+00 -0.17763568394E-14  0.84513429924E+02  0.15089012806E+03  0.12500124363E+03 0.  0.
    9000006    2    3    3    0    0 -0.14048160539E+02 -0.10425044882E+02  0.42950788171E+02  0.75834275415E+02  0.60000289565E+02 0.  0.
    9000007    2    3    3    0    0  0.14048160539E+02  0.10425044882E+02  0.41562641754E+02  0.75055852645E+02  0.59999128755E+02 0.  0.
          5    1    4    4  501    0  0.22667895502E+01  0.14175342722E+02  0.43386210313E+02  0.45940525916E+02  0.47000000000E+01 0. -1.
         -5    1    4    4    0  501 -0.16314950089E+02 -0.24600387604E+02 -0.43542214203E+00  0.29893749499E+02  0.47000000000E+01 0. -1.
         12    1    5    5    0    0 -0.17572162474E+02  0.22507575655E+02  0.21057463227E+02  0.35479411120E+02  0.00000000000E+00 0.  1.
        -12    1    5    5    0    0  0.31620323013E+02 -0.12082530773E+02  0.20505178527E+02  0.39576441524E+02  0.00000000000E+00 0.  1.
<mgrwt>
<rscale>  0 0.12500124E+03</rscale>
<asrwt>0</asrwt>
<pdfrwt beam="1">  1       21 0.18107966E-01 0.12500124E+03</pdfrwt>
<pdfrwt beam="2">  1       21 0.51058999E-02 0.12500124E+03</pdfrwt>
<totfact> 0.70645327E+06</totfact>
</mgrwt>
</event>
<event>
 9    1  0.4541185E-002  0.1250100E+03  0.7818608E-02  0.1235054E+00
         21   -1    0    0  503  502  0.00000000000E+00  0.00000000000E+00  0.30555366381E+02  0.30555366381E+02  0.00000000000E+00 0.  1.
         21   -1    0    0  502  503 -0.00000000000E+00 -0.00000000000E+00 -0.12786207717E+03  0.12786207717E+03  0.00000000000E+00 0.  1.
         25    2    1    2    0    0  0.35527136788E-14  0.17763568394E-14 -0.97306710786E+02  0.15841744355E+03  0.12500996143E+03 0.  0.
    9000006    2    3    3    0    0 -0.10315926886E+02 -0.14155489871E+02 -0.49143134237E+02  0.79510240200E+02  0.60000286775E+02 0.  0.
    9000007    2    3    3    0    0  0.10315926886E+02  0.14155489871E+02 -0.48163576549E+02  0.78907203348E+02  0.59998503258E+02 0.  0.
          5    1    4    4  501    0  0.31166921441E+01 -0.24291774821E+02  0.24318957672E+01  0.25056101271E+02  0.47000000000E+01 0.  1.
         -5    1    4    4    0  501 -0.13432619030E+02  0.10136284950E+02 -0.51575030004E+02  0.54454138929E+02  0.47000000000E+01 0.  1.
         12    1    5    5    0    0 -0.22700811267E+02  0.82787871374E+01 -0.35745229769E+02  0.43146107587E+02  0.00000000000E+00 0. -1.
        -12    1    5    5    0    0  0.33016738153E+02  0.58767027340E+01 -0.12418346781E+02  0.35761095762E+02  0.00000000000E+00 0. -1.
<mgrwt>
<rscale>  0 0.12500996E+03</rscale>
<asrwt>0</asrwt>
<pdfrwt beam="1">  1       21 0.47008255E-02 0.12500996E+03</pdfrwt>
<pdfrwt beam="2">  1       21 0.19671089E-01 0.12500996E+03</pdfrwt>
<totfact> 0.69695730E+06</totfact>
</mgrwt>
</event>
<event>
 9    1  0.4541185E-002  0.1250041E+03  0.7818608E-02  0.1235063E+00
         21   -1    0    0  503  502  0.00000000000E+00  0.00000000000E+00  0.69046810076E+01  0.69046810076E+01  0.00000000000E+00 0. -1.
         21   -1    0    0  502  503 -0.00000000000E+00 -0.00000000000E+00 -0.56577626124E+03  0.56577626124E+03  0.00000000000E+00 0. -1.
         25    2    1    2    0    0  0.35527136788E-14  0.00000000000E+00 -0.55887158023E+03  0.57268094225E+03  0.12500407362E+03 0.  0.
    9000006    2    3    3    0    0  0.21517258865E+01 -0.10914586368E+02 -0.34137259532E+03  0.34678375573E+03  0.59999719020E+02 0.  0.
    9000007    2    3    3    0    0 -0.21517258865E+01  0.10914586368E+02 -0.21749898491E+03  0.22589718652E+03  0.59999769325E+02 0.  0.
          5    1    4    4  501    0 -0.88757605335E+01 -0.71755912148E+01 -0.12143859346E+02  0.17315644780E+02  0.47000000000E+01 0.  1.
         -5    1    4    4    0  501  0.11027486420E+02 -0.37389951531E+01 -0.32922873598E+03  0.32946811095E+03  0.47000000000E+01 0.  1.
         12    1    5    5    0    0 -0.26389496505E+02 -0.75815013083E+01 -0.13898554864E+03  0.14167168884E+03  0.00000000000E+00 0. -1.
        -12    1    5    5    0    0  0.24237770619E+02  0.18496087676E+02 -0.78513436270E+02  0.84225497676E+02  0.00000000000E+00 0. -1.
<mgrwt>
<rscale>  0 0.12500407E+03</rscale>
<asrwt>0</asrwt>
<pdfrwt beam="1">  1       21 0.10622584E-02 0.12500407E+03</pdfrwt>
<pdfrwt beam="2">  1       21 0.87042523E-01 0.12500407E+03</pdfrwt>
<totfact> 0.38354092E+06</totfact>
</mgrwt>
</event>
<event>
 9    1  0.4541185E-002  0.1250026E+03  0.7818608E-02  0.1235065E+00
         21   -1    0    0  503  502  0.00000000000E+00  0.00000000000E+00  0.11663968520E+03  0.11663968520E+03  0.00000000000E+00 0. -1.
         21   -1    0    0  502  503 -0.00000000000E+00 -0.00000000000E+00 -0.33491278732E+02  0.33491278732E+02  0.00000000000E+00 0. -1.
         25    2    1    2    0    0 -0.35527136788E-14  0.00000000000E+00  0.83148406471E+02  0.15013096394E+03  0.12500259531E+03 0.  0.
    9000006    2    3    3    0    0 -0.16122780951E+02  0.44347061537E+01  0.35357328972E+02  0.71622039023E+02  0.59999708978E+02 0.  0.
    9000007    2    3    3    0    0  0.16122780951E+02 -0.44347061537E+01  0.47791077499E+02  0.78508924913E+02  0.60000445983E+02 0.  0.
          5    1    4    4  501    0 -0.23529118445E+02  0.28124470163E+02  0.22486936629E+02  0.43270747113E+02  0.47000000000E+01 0. -1.
         -5    1    4    4    0  501  0.74063374940E+01 -0.23689764009E+02  0.12870392343E+02  0.28351291910E+02  0.47000000000E+01 0. -1.
         12    1    5    5    0    0 -0.12233912958E+02 -0.23248724390E+02  0.11258258939E+02  0.28581816008E+02  0.00000000000E+00 0. -1.
        -12    1    5    5    0    0  0.28356693909E+02  0.18814018236E+02  0.36532818561E+02  0.49927108905E+02  0.00000000000E+00 0. -1.
<mgrwt>
<rscale>  0 0.12500260E+03</rscale>
<asrwt>0</asrwt>
<pdfrwt beam="1">  1       21 0.17944567E-01 0.12500260E+03</pdfrwt>
<pdfrwt beam="2">  1       21 0.51525045E-02 0.12500260E+03</pdfrwt>
<totfact> 0.70738080E+06</totfact>
</mgrwt>
</event>
<event>
 9    1  0.4541185E-002  0.1250004E+03  0.7818608E-02  0.1235069E+00
         21   -1    0    0  503  502  0.00000000000E+00  0.00000000000E+00  0.27106857638E+03  0.27106857638E+03  0.00000000000E+00 0. -1.
         21   -1    0    0  502  503 -0.00000000000E+00 -0.00000000000E+00 -0.14410662637E+02  0.14410662637E+02  0.00000000000E+00 0. -1.
         25    2    1    2    0    0  0.00000000000E+00  0.00000000000E+00  0.25665791374E+03  0.28547923901E+03  0.12500044489E+03 0.  0.
    9000006    2    3    3    0    0  0.64048268714E+01 -0.13563526773E+02  0.14892928502E+03  0.16126035291E+03  0.59999820151E+02 0.  0.
    9000007    2    3    3    0    0 -0.64048268714E+01  0.13563526773E+02  0.10772862872E+03  0.12421888611E+03  0.59999026272E+02 0.  0.
          5    1    4    4  501    0  0.24217029744E+01 -0.27615824189E+02  0.29144191890E+02  0.40496571606E+02  0.47000000000E+01 0. -1.
         -5    1    4    4    0  501  0.39831238970E+01  0.14052297415E+02  0.11978509313E+03  0.12076378130E+03  0.47000000000E+01 0. -1.
         12    1    5    5    0    0  0.22549235124E+02  0.14402286623E+01  0.17182868915E+02  0.28386497625E+02  0.00000000000E+00 0. -1.
        -12    1    5    5    0    0 -0.28954061995E+02  0.12123298111E+02  0.90545759810E+02  0.95832388485E+02  0.00000000000E+00 0. -1.
<mgrwt>
<rscale>  0 0.12500044E+03</rscale>
<asrwt>0</asrwt>
<pdfrwt beam="1">  1       21 0.41702854E-01 0.12500044E+03</pdfrwt>
<pdfrwt beam="2">  1       21 0.22170252E-02 0.12500044E+03</pdfrwt>
<totfact> 0.56684283E+06</totfact>
</mgrwt>
</event>
<event>
 9    1  0.4541185E-002  0.1250045E+03  0.7818608E-02  0.1235062E+00
         21   -1    0    0  503  502  0.00000000000E+00  0.00000000000E+00  0.83346578134E+02  0.83346578134E+02  0.00000000000E+00 0.  1.
         21   -1    0    0  502  503 -0.00000000000E+00 -0.00000000000E+00 -0.46870918739E+02  0.46870918739E+02  0.00000000000E+00 0.  1.
         25    2    1    2    0    0  0.17763568394E-14  0.17763568394E-14  0.36475659395E+02  0.13021749687E+03  0.12500449097E+03 0.  0.
    9000006    2    3    3    0    0  0.97111990740E+01 -0.13427885939E+02  0.24138217833E+02  0.66762920286E+02  0.60000153806E+02 0.  0.
    9000007    2    3    3    0    0 -0.97111990740E+01  0.13427885939E+02  0.12337441562E+02  0.63454576587E+02  0.59997127576E+02 0.  0.
          5    1    4    4  501    0  0.16714751221E+02  0.19590261651E+02  0.18893329643E+02  0.32283264471E+02  0.47000000000E+01 0. -1.
         -5    1    4    4    0  501 -0.70035521465E+01 -0.33018147590E+02  0.52448881898E+01  0.34479655814E+02  0.47000000000E+01 0. -1.
         12    1    5    5    0    0  0.11025444344E+02  0.97785579273E+01  0.31631547871E+02  0.34896066237E+02  0.00000000000E+00 0.  1.
        -12    1    5    5    0    0 -0.20736643418E+02  0.36493280119E+01 -0.19294106309E+02  0.28558510350E+02  0.00000000000E+00 0.  1.
<mgrwt>
<rscale>  0 0.12500449E+03</rscale>
<asrwt>0</asrwt>
<pdfrwt beam="1">  1       21 0.12822550E-01 0.12500449E+03</pdfrwt>
<pdfrwt beam="2">  1       21 0.72109106E-02 0.12500449E+03</pdfrwt>
<totfact> 0.73327453E+06</totfact>
</mgrwt>
</event>
<event>
 9    1  0.4541185E-002  0.1250006E+03  0.7818608E-02  0.1235068E+00
         21   -1    0    0  503  502  0.00000000000E+00  0.00000000000E+00  0.24559982352E+03  0.24559982352E+03  0.00000000000E+00 0. -1.
         21   -1    0    0  502  503 -0.00000000000E+00 -0.00000000000E+00 -0.15905093548E+02  0.15905093548E+02  0.00000000000E+00 0. -1.
         25    2    1    2    0    0 -0.17763568394E-14  0.00000000000E+00  0.22969472998E+03  0.26150491707E+03  0.12500061069E+03 0.  0.
    9000006    2    3    3    0    0 -0.56325322391E+01  0.16510506661E+02  0.11207375513E+03  0.12831566740E+03  0.60000513844E+02 0.  0.
    9000007    2    3    3    0    0  0.56325322391E+01 -0.16510506661E+02  0.11762097484E+03  0.13318924967E+03  0.60003002049E+02 0.  0.
          5    1    4    4  501    0 -0.15640970581E+02 -0.18139850368E+01  0.10423655678E+03  0.10552383746E+03  0.47000000000E+01 0.  1.
         -5    1    4    4    0  501  0.10008438342E+02  0.18324491698E+02  0.78371983479E+01  0.22791829939E+02  0.47000000000E+01 0.  1.
         12    1    5    5    0    0 -0.20976727453E+02  0.90760542385E+01  0.65077196816E+02  0.68974193730E+02  0.00000000000E+00 0.  1.
        -12    1    5    5    0    0  0.26609259693E+02 -0.25586560900E+02  0.52543778028E+02  0.64215055941E+02  0.00000000000E+00 0.  1.
<mgrwt>
<rscale>  0 0.12500061E+03</rscale>
<asrwt>0</asrwt>
<pdfrwt beam="1">  1       21 0.37784586E-01 0.12500061E+03</pdfrwt>
<pdfrwt beam="2">  1       21 0.24469376E-02 0.12500061E+03</pdfrwt>
<totfact> 0.58810708E+06</totfact>
</mgrwt>
</event>
<event>
 9    1  0.4541185E-002  0.1250015E+03  0.7818608E-02  0.1235067E+00
         21   -1    0    0  503  502  0.00000000000E+00  0.00000000000E+00  0.11378433737E+02  0.11378433737E+02  0.00000000000E+00 0. -1.
         21   -1    0    0  502  503 -0.00000000000E+00 -0.00000000000E+00 -0.34331138960E+03  0.34331138960E+03  0.00000000000E+00 0. -1.
         25    2    1    2    0    0 -0.88817841970E-15  0.00000000000E+00 -0.33193295587E+03  0.35468982334E+03  0.12500153436E+03 0.  0.
    9000006    2    3    3    0    0 -0.29024898304E+01 -0.17209193284E+02 -0.16212425099E+03  0.17374964840E+03  0.60000723171E+02 0.  0.
    9000007    2    3    3    0    0  0.29024898304E+01  0.17209193284E+02 -0.16980870488E+03  0.18094017494E+03  0.59998082247E+02 0.  0.
          5    1    4    4  501    0 -0.19709161687E+02 -0.13064644723E+02 -0.22496518394E+02  0.32974525561E+02  0.47000000000E+01 0.  1.
         -5    1    4    4    0  501  0.16806671857E+02 -0.41445485610E+01 -0.13962773259E+03  0.14077512284E+03  0.47000000000E+01 0.  1.
         12    1    5    5    0    0  0.33473592787E+01  0.61448124857E+01 -0.16972233264E+03  0.16986651739E+03  0.00000000000E+00 0.  1.
        -12    1    5    5    0    0 -0.44486944827E+00  0.11064380798E+02 -0.86372239368E-01  0.11073657545E+02  0.00000000000E+00 0.  1.
<mgrwt>
<rscale>  0 0.12500153E+03</rscale>
<asrwt>0</asrwt>
<pdfrwt beam="1">  1       21 0.17505283E-02 0.12500153E+03</pdfrwt>
<pdfrwt beam="2">  1       21 0.52817135E-01 0.12500153E+03</pdfrwt>
<totfact> 0.51191963E+06</totfact>
</mgrwt>
</event>
<event>
 9    1  0.4541185E-002  0.1249989E+03  0.7818608E-02  0.1235071E+00
         21   -1    0    0  503  502  0.00000000000E+00  0.00000000000E+00  0.16142411906E+03  0.16142411906E+03  0.00000000000E+00 0. -1.
         21   -1    0    0  502  503 -0.00000000000E+00 -0.00000000000E+00 -0.24198250287E+02  0.24198250287E+02  0.00000000000E+00 0. -1.
         25    2    1    2    0    0 -0.35527136788E-14  0.00000000000E+00  0.13722586877E+03  0.18562236935E+03  0.12499889976E+03 0.  0.
    9000006    2    3    3    0    0  0.17157321543E+02  0.62193009667E+00  0.73635217599E+02  0.96523973702E+02  0.59999764573E+02 0.  0.
    9000007    2    3    3    0    0 -0.17157321543E+02 -0.62193009667E+00  0.63590651176E+02  0.89098395646E+02  0.59999939251E+02 0.  0.
          5    1    4    4  501    0  0.40151029453E+01 -0.26074143338E+02  0.54785996394E+02  0.60988338256E+02  0.47000000000E+01 0. -1.
         -5    1    4    4    0  501  0.13142218597E+02  0.26696073434E+02  0.18849221205E+02  0.35535635445E+02  0.47000000000E+01 0. -1.
         12    1    5    5    0    0 -0.20133403835E+02 -0.26171890404E+02  0.20355691580E+02  0.38790153093E+02  0.00000000000E+00 0.  1.
        -12    1    5    5    0    0  0.29760822918E+01  0.25549960307E+02  0.43234959596E+02  0.50308242553E+02  0.00000000000E+00 0.  1.
<mgrwt>
<rscale>  0 0.12499890E+03</rscale>
<asrwt>0</asrwt>
<pdfrwt beam="1">  1       21 0.24834479E-01 0.12499890E+03</pdfrwt>
<pdfrwt beam="2">  1       21 0.37228079E-02 0.12499890E+03</pdfrwt>
<totfact> 0.66514191E+06</totfact>
</mgrwt>
</event>
<event>
 9    1  0.4541185E-002  0.1250084E+03  0.7818608E-02  0.1235056E+00
         21   -1    0    0  503  502  0.00000000000E+00  0.00000000000E+00  0.58666208447E+01  0.58666208447E+01  0.00000000000E+00 0. -1.
         21   -1    0    0  502  503 -0.00000000000E+00 -0.00000000000E+00 -0.66593300683E+03  0.66593300683E+03  0.00000000000E+00 0. -1.
         25    2    1    2    0    0  0.00000000000E+00  0.00000000000E+00 -0.66006638598E+03  0.67179962767E+03  0.12500842306E+03 0.  0.
    9000006    2    3    3    0    0  0.73857544630E+01 -0.29054803801E+01 -0.24610998228E+03  0.25344233609E+03  0.59999193004E+02 0.  0.
    9000007    2    3    3    0    0 -0.73857544630E+01  0.29054803801E+01 -0.41395640371E+03  0.41835729158E+03  0.59999400544E+02 0.  0.
          5    1    4    4  501    0 -0.11486089124E+02 -0.18044366395E+02 -0.19967218450E+03  0.20086961110E+03  0.47000000000E+01 0. -1.
         -5    1    4    4    0  501  0.18871843587E+02  0.15138886015E+02 -0.46437797779E+02  0.52572724989E+02  0.47000000000E+01 0. -1.
         12    1    5    5    0    0  0.25122358475E+02 -0.48452474212E+01 -0.13470379949E+03  0.13711208158E+03  0.00000000000E+00 0. -1.
        -12    1    5    5    0    0 -0.32508112938E+02  0.77507278013E+01 -0.27925260422E+03  0.28124521001E+03  0.00000000000E+00 0. -1.
<mgrwt>
<rscale>  0 0.12500842E+03</rscale>
<asrwt>0</asrwt>
<pdfrwt beam="1">  1       21 0.90255701E-03 0.12500842E+03</pdfrwt>
<pdfrwt beam="2">  1       21 0.10245124E+00 0.12500842E+03</pdfrwt>
<totfact> 0.34018851E+06</totfact>
</mgrwt>
</event>
<event>
 9    1  0.4541185E-002  0.1250001E+03  0.7818608E-02  0.1235069E+00
         21   -1    0    0  503  502  0.00000000000E+00  0.00000000000E+00  0.53278846300E+02  0.53278846300E+02  0.00000000000E+00 0.  1.
         21   -1    0    0  502  503 -0.00000000000E+00 -0.00000000000E+00 -0.73317212616E+02  0.73317212616E+02  0.00000000000E+00 0.  1.
         25    2    1    2    0    0 -0.35527136788E-14  0.00000000000E+00 -0.20038366315E+02  0.12659605892E+03  0.12500010403E+03 0.  0.
    9000006    2    3    3    0    0  0.10145722358E+02  0.10503577168E+02 -0.26177636397E+00  0.61754147436E+02  0.60002044825E+02 0.  0.
    9000007    2    3    3    0    0 -0.10145722358E+02 -0.10503577168E+02 -0.19776589952E+02  0.64841911481E+02  0.60000826318E+02 0.  0.
          5    1    4    4  501    0 -0.33724574833E+01  0.33052339223E+02  0.65587310841E+01  0.34189728736E+02  0.47000000000E+01 0.  1.
         -5    1    4    4    0  501  0.13518179841E+02 -0.22548762055E+02 -0.68205074481E+01  0.27564418700E+02  0.47000000000E+01 0.  1.
         12    1    5    5    0    0  0.22269600910E+02 -0.10276736940E+02  0.37183665980E+01  0.24806706694E+02  0.00000000000E+00 0. -1.
        -12    1    5    5    0    0 -0.32415323268E+02 -0.22684022792E+00 -0.23494956550E+02  0.40035204787E+02  0.00000000000E+00 0. -1.
<mgrwt>
<rscale>  0 0.12500010E+03</rscale>
<asrwt>0</asrwt>
<pdfrwt beam="1">  1       21 0.81967456E-02 0.12500010E+03</pdfrwt>
<pdfrwt beam="2">  1       21 0.11279571E-01 0.12500010E+03</pdfrwt>
<totfact> 0.73824039E+06</totfact>
</mgrwt>
</event>
<event>
 9    1  0.4541185E-002  0.1250037E+03  0.7818608E-02  0.1235063E+00
         21   -1    0    0  503  502  0.00000000000E+00  0.00000000000E+00  0.11111871305E+03  0.11111871305E+03  0.00000000000E+00 0. -1.
         21   -1    0    0  502  503 -0.00000000000E+00 -0.00000000000E+00 -0.35155944659E+02  0.35155944659E+02  0.00000000000E+00 0. -1.
         25    2    1    2    0    0 -0.17763568394E-14  0.22204460493E-15  0.75962768394E+02  0.14627465771E+03  0.12500373317E+03 0.  0.
    9000006    2    3    3    0    0 -0.22916152172E+01 -0.55733192483E+00  0.58283110903E+02  0.83680294082E+02  0.59999237345E+02 0.  0.
    9000007    2    3    3    0    0  0.22916152172E+01  0.55733192483E+00  0.17679657492E+02  0.62594363631E+02  0.59999349581E+02 0.  0.
          5    1    4    4  501    0 -0.23364881055E+02 -0.16726783040E+02  0.45035603282E+02  0.53628336731E+02  0.47000000000E+01 0.  1.
         -5    1    4    4    0  501  0.21073265838E+02  0.16169451116E+02  0.13247507621E+02  0.30051957351E+02  0.47000000000E+01 0.  1.
         12    1    5    5    0    0 -0.13602151809E+02  0.98711011803E+00 -0.18553265116E+02  0.23026431914E+02  0.00000000000E+00 0.  1.
        -12    1    5    5    0    0  0.15893767026E+02 -0.42977819320E+00  0.36232922608E+02  0.39567931716E+02  0.00000000000E+00 0.  1.
<mgrwt>
<rscale>  0 0.12500373E+03</rscale>
<asrwt>0</asrwt>
<pdfrwt beam="1">  1       21 0.17095186E-01 0.12500373E+03</pdfrwt>
<pdfrwt beam="2">  1       21 0.54086069E-02 0.12500373E+03</pdfrwt>
<totfact> 0.71223600E+06</totfact>
</mgrwt>
</event>
<event>
 9    1  0.4541185E-002  0.1249995E+03  0.7818608E-02  0.1235070E+00
         21   -1    0    0  503  502  0.00000000000E+00  0.00000000000E+00  0.91687314392E+02  0.91687314392E+02  0.00000000000E+00 0. -1.
         21   -1    0    0  502  503 -0.00000000000E+00 -0.00000000000E+00 -0.42603713774E+02  0.42603713774E+02  0.00000000000E+00 0. -1.
         25    2    1    2    0    0 -0.35527136788E-14 -0.44408920985E-15  0.49083600618E+02  0.13429102817E+03  0.12499952158E+03 0.  0.
    9000006    2    3    3    0    0 -0.17074217272E+02  0.16160234538E+01  0.20804732654E+02  0.65779625634E+02  0.59999848504E+02 0.  0.
    9000007    2    3    3    0    0  0.17074217272E+02 -0.16160234538E+01  0.28278867964E+02  0.68511402531E+02  0.59999812301E+02 0.  0.
          5    1    4    4  501    0 -0.66366677570E+01  0.13864903537E+02 -0.17623914815E+02  0.23853160848E+02  0.47000000000E+01 0. -1.
         -5    1    4    4    0  501 -0.10437549515E+02 -0.12248880083E+02  0.38428647469E+02  0.41926464786E+02  0.47000000000E+01 0. -1.
         12    1    5    5    0    0  0.21659590311E+02  0.37206090282E+01 -0.13732763855E+02  0.25914659695E+02  0.00000000000E+00 0.  1.
        -12    1    5    5    0    0 -0.45853730391E+01 -0.53366324820E+01  0.42011631820E+02  0.42596742837E+02  0.00000000000E+00 0.  1.
<mgrwt>
<rscale>  0 0.12499952E+03</rscale>
<asrwt>0</asrwt>
<pdfrwt beam="1">  1       21 0.14105741E-01 0.12499952E+03</pdfrwt>
<pdfrwt beam="2">  1       21 0.65544175E-02 0.12499952E+03</pdfrwt>
<totfact> 0.72791370E+06</totfact>
</mgrwt>
</event>
<event>
 9    1  0.4541185E-002  0.1249985E+03  0.7818608E-02  0.1235072E+00
         21   -1    0    0  503  502  0.00000000000E+00  0.00000000000E+00  0.26933382905E+02  0.26933382905E+02  0.00000000000E+00 0.  1.
         21   -1    0    0  502  503 -0.00000000000E+00 -0.00000000000E+00 -0.14503033328E+03  0.14503033328E+03  0.00000000000E+00 0.  1.
         25    2    1    2    0    0 -0.35527136788E-14  0.17763568394E-14 -0.11809695037E+03  0.17196371618E+03  0.12499851998E+03 0.  0.
    9000006    2    3    3    0    0  0.10186748557E+02 -0.14193706330E+02 -0.57938870573E+02  0.85220147970E+02  0.60002747864E+02 0.  0.
    9000007    2    3    3    0    0 -0.10186748557E+02  0.14193706330E+02 -0.60158079801E+02  0.86743568214E+02  0.60001840935E+02 0.  0.
          5    1    4    4  501    0 -0.20117416290E+02  0.25554861801E+00 -0.43917847524E+02  0.48534967543E+02  0.47000000000E+01 0.  1.
         -5    1    4    4    0  501  0.30304164847E+02 -0.14449254948E+02 -0.14021023049E+02  0.36685180427E+02  0.47000000000E+01 0.  1.
         12    1    5    5    0    0 -0.10884886390E+02  0.89794233102E+01  0.94205322519E+01  0.16966355608E+02  0.00000000000E+00 0. -1.
        -12    1    5    5    0    0  0.69813783278E+00  0.52142830201E+01 -0.69578612053E+02  0.69777212606E+02  0.00000000000E+00 0. -1.
<mgrwt>
<rscale>  0 0.12499852E+03</rscale>
<asrwt>0</asrwt>
<pdfrwt beam="1">  1       21 0.41435973E-02 0.12499852E+03</pdfrwt>
<pdfrwt beam="2">  1       21 0.22312359E-01 0.12499852E+03</pdfrwt>
<totfact> 0.68088165E+06</totfact>
</mgrwt>
</event>
<event>
 9    1  0.4541185E-002  0.1250004E+03  0.7818608E-02  0.1235069E+00
         21   -1    0    0  503  502  0.00000000000E+00  0.00000000000E+00  0.75434573707E+02  0.75434573707E+02  0.00000000000E+00 0.  1.
         21   -1    0    0  502  503 -0.00000000000E+00 -0.00000000000E+00 -0.51783642523E+02  0.51783642523E+02  0.00000000000E+00 0.  1.
         25    2    1    2    0    0 -0.35527136788E-14  0.00000000000E+00  0.23650931184E+02  0.12721821623E+03  0.12500043198E+03 0.  0.
    9000006    2    3    3    0    0  0.11770135115E+02 -0.79456626911E+01  0.14045941393E+01  0.61673125651E+02  0.59999432553E+02 0.  0.
    9000007    2    3    3    0    0 -0.11770135115E+02  0.79456626911E+01  0.22246337044E+02  0.65545090579E+02  0.59996581160E+02 0.  0.
          5    1    4    4  501    0  0.23817854982E+02 -0.21425348367E+01  0.24511171364E+02  0.34565419036E+02  0.47000000000E+01 0. -1.
         -5    1    4    4    0  501 -0.12047719867E+02 -0.58031278543E+01 -0.23106577225E+02  0.27107706616E+02  0.47000000000E+01 0. -1.
         12    1    5    5    0    0  0.16362696077E+02 -0.14153569759E+02 -0.28837360088E+01  0.21826069119E+02  0.00000000000E+00 0.  1.
        -12    1    5    5    0    0 -0.28132831191E+02  0.22099232450E+02  0.25130073053E+02  0.43719021460E+02  0.00000000000E+00 0.  1.
<mgrwt>
<rscale>  0 0.12500043E+03</rscale>
<asrwt>0</asrwt>
<pdfrwt beam="1">  1       21 0.11605319E-01 0.12500043E+03</pdfrwt>
<pdfrwt beam="2">  1       21 0.79667142E-02 0.12500043E+03</pdfrwt>
<totfact> 0.73738646E+06</totfact>
</mgrwt>
</event>
<event>
 9    1  0.4541185E-002  0.1250058E+03  0.7818608E-02  0.1235060E+00
         21   -1    0    0  503  502  0.00000000000E+00  0.00000000000E+00  0.43907709590E+02  0.43907709590E+02  0.00000000000E+00 0. -1.
         21   -1    0    0  502  503 -0.00000000000E+00 -0.00000000000E+00 -0.88973292675E+02  0.88973292675E+02  0.00000000000E+00 0. -1.
         25    2    1    2    0    0  0.17763568394E-14  0.00000000000E+00 -0.45065583085E+02  0.13288100227E+03  0.12500581580E+03 0.  0.
    9000006    2    3    3    0    0  0.83607384437E+01  0.14810985218E+02 -0.26964085115E+02  0.67943476060E+02  0.59999890188E+02 0.  0.
    9000007    2    3    3    0    0 -0.83607384437E+01 -0.14810985218E+02 -0.18101497970E+02  0.64937526205E+02  0.59999590419E+02 0.  0.
          5    1    4    4  501    0  0.33846345840E+02  0.46727973870E+01 -0.16230835192E+02  0.38117452343E+02  0.47000000000E+01 0.  1.
         -5    1    4    4    0  501 -0.25485607396E+02  0.10138187831E+02 -0.10733249923E+02  0.29826023717E+02  0.47000000000E+01 0.  1.
         12    1    5    5    0    0 -0.16228097780E+02 -0.25098334021E+02  0.11970142671E+02  0.32195680515E+02  0.00000000000E+00 0. -1.
        -12    1    5    5    0    0  0.78673593367E+01  0.10287348804E+02 -0.30071640642E+02  0.32741845691E+02  0.00000000000E+00 0. -1.
<mgrwt>
<rscale>  0 0.12500582E+03</rscale>
<asrwt>0</asrwt>
<pdfrwt beam="1">  1       21 0.67550323E-02 0.12500582E+03</pdfrwt>
<pdfrwt beam="2">  1       21 0.13688199E-01 0.12500582E+03</pdfrwt>
<totfact> 0.72967467E+06</totfact>
</mgrwt>
</event>
<event>
 9    1  0.4541185E-002  0.1249927E+03  0.7818608E-02  0.1235081E+00
         21   -1    0    0  503  502  0.00000000000E+00  0.00000000000E+00  0.86963370646E+01  0.86963370646E+01  0.00000000000E+00 0.  1.
         21   -1    0    0  502  503 -0.00000000000E+00 -0.00000000000E+00 -0.44913063742E+03  0.44913063742E+03  0.00000000000E+00 0.  1.
         25    2    1    2    0    0  0.35527136788E-14  0.17763568394E-14 -0.44043430035E+03  0.45782697448E+03  0.12499266233E+03 0.  0.
    9000006    2    3    3    0    0  0.16759567198E+02  0.49887955037E+01 -0.21930361778E+03  0.22803485311E+03  0.60000385755E+02 0.  0.
    9000007    2    3    3    0    0 -0.16759567198E+02 -0.49887955037E+01 -0.22113068258E+03  0.22979212137E+03  0.59998909106E+02 0.  0.
          5    1    4    4  501    0 -0.13224685456E+02 -0.88742153562E+01 -0.15210090978E+03  0.15300464293E+03  0.47000000000E+01 0. -1.
         -5    1    4    4    0  501  0.29984252654E+02  0.13863010860E+02 -0.67202708003E+02  0.75030210184E+02  0.47000000000E+01 0. -1.
         12    1    5    5    0    0  0.95631239268E+01  0.15235498779E+02 -0.15247750340E+03  0.15353489117E+03  0.00000000000E+00 0.  1.
        -12    1    5    5    0    0 -0.26322691125E+02 -0.20224294283E+02 -0.68653179172E+02  0.76257230200E+02  0.00000000000E+00 0.  1.
<mgrwt>
<rscale>  0 0.12499266E+03</rscale>
<asrwt>0</asrwt>
<pdfrwt beam="1">  1       21 0.13378980E-02 0.12499266E+03</pdfrwt>
<pdfrwt beam="2">  1       21 0.69097021E-01 0.12499266E+03</pdfrwt>
<totfact> 0.44435723E+06</totfact>
</mgrwt>
</event>
<event>
 9    1  0.4541185E-002  0.1250005E+03  0.7818608E-02  0.1235068E+00
         21   -1    0    0  503  502  0.00000000000E+00  0.00000000000E+00  0.50110807274E+03  0.50110807274E+03  0.00000000000E+00 0.  1.
         21   -1    0    0  502  503 -0.00000000000E+00 -0.00000000000E+00 -0.77952919653E+01  0.77952919653E+01  0.00000000000E+00 0.  1.
         25    2    1    2    0    0  0.00000000000E+00  0.35527136788E-14  0.49331278078E+03  0.50890336471E+03  0.12500053973E+03 0.  0.
    9000006    2    3    3    0    0 -0.16603372986E+01 -0.17783341391E+01  0.17609352913E+03  0.18605045938E+03  0.59999360357E+02 0.  0.
    9000007    2    3    3    0    0  0.16603372986E+01  0.17783341391E+01  0.31721925165E+03  0.32285290533E+03  0.60000213902E+02 0.  0.
          5    1    4    4  501    0  0.21288660956E+02 -0.19185863348E+02  0.65098796129E+02  0.71282870980E+02  0.47000000000E+01 0.  1.
         -5    1    4    4    0  501 -0.22948998255E+02  0.17407529209E+02  0.11099473300E+03  0.11476758840E+03  0.47000000000E+01 0.  1.
         12    1    5    5    0    0 -0.43251017809E+01 -0.28047074985E+02  0.18608749164E+03  0.18823894248E+03  0.00000000000E+00 0.  1.
        -12    1    5    5    0    0  0.59854390795E+01  0.29825409124E+02  0.13113176001E+03  0.13461396285E+03  0.00000000000E+00 0.  1.
<mgrwt>
<rscale>  0 0.12500054E+03</rscale>
<asrwt>0</asrwt>
<pdfrwt beam="1">  1       21 0.77093524E-01 0.12500054E+03</pdfrwt>
<pdfrwt beam="2">  1       21 0.11992761E-02 0.12500054E+03</pdfrwt>
<totfact> 0.41564751E+06</totfact>
</mgrwt>
</event>
